  20  20   0   0
  0.1284223E+02  0.4004905E-09  0.4004905E-09  0.1601349E-08  0.5000000E-15
  1.000000000000000E-004
  CAR 
 unknown system                          
     14.92428963    -54.88920489  301      6.87650932      1.00000000
    -54.889  0.0000E+00  0.0000E+00
    -54.656  0.0000E+00  0.0000E+00
    -54.424  0.0000E+00  0.0000E+00
    -54.191  0.0000E+00  0.0000E+00
    -53.958  0.0000E+00  0.0000E+00
    -53.726  0.0000E+00  0.0000E+00
    -53.493  0.0000E+00  0.0000E+00
    -53.260  0.0000E+00  0.0000E+00
    -53.028  0.0000E+00  0.0000E+00
    -52.795  0.0000E+00  0.0000E+00
    -52.562  0.0000E+00  0.0000E+00
    -52.329  0.0000E+00  0.0000E+00
    -52.097  0.0000E+00  0.0000E+00
    -51.864  0.0000E+00  0.0000E+00
    -51.631  0.0000E+00  0.4000E+01
    -51.399  0.0000E+00  0.4000E+01
    -51.166  0.0000E+00  0.4000E+01
    -50.933  0.0000E+00  0.4000E+01
    -50.700  0.0000E+00  0.4000E+01
    -50.468  0.0000E+00  0.4000E+01
    -50.235  0.0000E+00  0.4000E+01
    -50.002  0.0000E+00  0.4000E+01
    -49.770  0.0000E+00  0.8000E+01
    -49.537  0.0000E+00  0.8000E+01
    -49.304  0.0000E+00  0.8000E+01
    -49.071  0.0000E+00  0.8000E+01
    -48.839  0.0000E+00  0.8000E+01
    -48.606  0.0000E+00  0.8000E+01
    -48.373  0.0000E+00  0.8000E+01
    -48.141  0.0000E+00  0.8000E+01
    -47.908  0.0000E+00  0.8000E+01
    -47.675  0.0000E+00  0.8000E+01
    -47.442  0.0000E+00  0.8000E+01
    -47.210  0.0000E+00  0.8000E+01
    -46.977  0.0000E+00  0.8000E+01
    -46.744  0.0000E+00  0.8000E+01
    -46.512  0.0000E+00  0.8000E+01
    -46.279  0.0000E+00  0.8000E+01
    -46.046  0.0000E+00  0.8000E+01
    -45.813  0.0000E+00  0.8000E+01
    -45.581  0.0000E+00  0.8000E+01
    -45.348  0.0000E+00  0.8000E+01
    -45.115  0.0000E+00  0.8000E+01
    -44.883  0.0000E+00  0.8000E+01
    -44.650  0.0000E+00  0.8000E+01
    -44.417  0.0000E+00  0.8000E+01
    -44.184  0.0000E+00  0.8000E+01
    -43.952  0.0000E+00  0.8000E+01
    -43.719  0.0000E+00  0.8000E+01
    -43.486  0.0000E+00  0.8000E+01
    -43.254  0.0000E+00  0.8000E+01
    -43.021  0.0000E+00  0.8000E+01
    -42.788  0.0000E+00  0.8000E+01
    -42.555  0.0000E+00  0.8000E+01
    -42.323  0.0000E+00  0.8000E+01
    -42.090  0.0000E+00  0.8000E+01
    -41.857  0.0000E+00  0.8000E+01
    -41.625  0.0000E+00  0.8000E+01
    -41.392  0.0000E+00  0.8000E+01
    -41.159  0.0000E+00  0.8000E+01
    -40.927  0.0000E+00  0.8000E+01
    -40.694  0.0000E+00  0.8000E+01
    -40.461  0.0000E+00  0.8000E+01
    -40.228  0.0000E+00  0.8000E+01
    -39.996  0.0000E+00  0.8000E+01
    -39.763  0.0000E+00  0.8000E+01
    -39.530  0.0000E+00  0.8000E+01
    -39.298  0.0000E+00  0.8000E+01
    -39.065  0.0000E+00  0.8000E+01
    -38.832  0.0000E+00  0.8000E+01
    -38.599  0.0000E+00  0.8000E+01
    -38.367  0.0000E+00  0.8000E+01
    -38.134  0.0000E+00  0.8000E+01
    -37.901  0.0000E+00  0.8000E+01
    -37.669  0.0000E+00  0.8000E+01
    -37.436  0.0000E+00  0.8000E+01
    -37.203  0.0000E+00  0.8000E+01
    -36.970  0.0000E+00  0.8000E+01
    -36.738  0.0000E+00  0.8000E+01
    -36.505  0.0000E+00  0.8000E+01
    -36.272  0.0000E+00  0.8000E+01
    -36.040  0.0000E+00  0.8000E+01
    -35.807  0.0000E+00  0.8000E+01
    -35.574  0.0000E+00  0.8000E+01
    -35.341  0.0000E+00  0.8000E+01
    -35.109  0.0000E+00  0.8000E+01
    -34.876  0.0000E+00  0.8000E+01
    -34.643  0.0000E+00  0.8000E+01
    -34.411  0.0000E+00  0.8000E+01
    -34.178  0.0000E+00  0.8000E+01
    -33.945  0.0000E+00  0.8000E+01
    -33.712  0.0000E+00  0.8000E+01
    -33.480  0.0000E+00  0.8000E+01
    -33.247  0.0000E+00  0.8000E+01
    -33.014  0.0000E+00  0.8000E+01
    -32.782  0.0000E+00  0.8000E+01
    -32.549  0.0000E+00  0.8000E+01
    -32.316  0.0000E+00  0.8000E+01
    -32.083  0.0000E+00  0.8000E+01
    -31.851  0.0000E+00  0.8000E+01
    -31.618  0.0000E+00  0.8000E+01
    -31.385  0.0000E+00  0.8000E+01
    -31.153  0.0000E+00  0.8000E+01
    -30.920  0.0000E+00  0.8000E+01
    -30.687  0.0000E+00  0.8000E+01
    -30.454  0.0000E+00  0.8000E+01
    -30.222  0.0000E+00  0.8000E+01
    -29.989  0.0000E+00  0.8000E+01
    -29.756  0.0000E+00  0.8000E+01
    -29.524  0.0000E+00  0.8000E+01
    -29.291  0.0000E+00  0.1000E+02
    -29.058  0.0000E+00  0.1000E+02
    -28.826  0.0000E+00  0.1400E+02
    -28.593  0.0000E+00  0.1600E+02
    -28.360  0.0000E+00  0.1600E+02
    -28.127  0.0000E+00  0.1600E+02
    -27.895  0.0000E+00  0.2800E+02
    -27.662  0.0000E+00  0.2800E+02
    -27.429  0.0000E+00  0.2800E+02
    -27.197  0.0000E+00  0.2800E+02
    -26.964  0.0000E+00  0.2800E+02
    -26.731  0.0000E+00  0.2800E+02
    -26.498  0.0000E+00  0.2800E+02
    -26.266  0.8180E+02  0.2828E+02
    -26.033  0.0000E+00  0.4000E+02
    -25.800  0.0000E+00  0.4000E+02
    -25.568  0.0000E+00  0.4000E+02
    -25.335  0.0000E+00  0.4000E+02
    -25.102  0.0000E+00  0.4000E+02
    -24.869  0.0000E+00  0.4000E+02
    -24.637  0.0000E+00  0.4000E+02
    -24.404  0.0000E+00  0.4000E+02
    -24.171  0.0000E+00  0.4000E+02
    -23.939  0.0000E+00  0.4000E+02
    -23.706  0.0000E+00  0.4000E+02
    -23.473  0.0000E+00  0.4000E+02
    -23.240  0.0000E+00  0.4000E+02
    -23.008  0.0000E+00  0.4000E+02
    -22.775  0.0000E+00  0.4000E+02
    -22.542  0.0000E+00  0.4000E+02
    -22.310  0.0000E+00  0.4000E+02
    -22.077  0.0000E+00  0.4000E+02
    -21.844  0.0000E+00  0.4000E+02
    -21.611  0.0000E+00  0.4000E+02
    -21.379  0.0000E+00  0.4000E+02
    -21.146  0.0000E+00  0.4000E+02
    -20.913  0.0000E+00  0.4000E+02
    -20.681  0.0000E+00  0.4000E+02
    -20.448  0.0000E+00  0.4000E+02
    -20.215  0.0000E+00  0.4000E+02
    -19.982  0.0000E+00  0.4000E+02
    -19.750  0.0000E+00  0.4000E+02
    -19.517  0.0000E+00  0.4000E+02
    -19.284  0.0000E+00  0.4000E+02
    -19.052  0.0000E+00  0.4000E+02
    -18.819  0.0000E+00  0.4000E+02
    -18.586  0.0000E+00  0.4000E+02
    -18.353  0.0000E+00  0.4000E+02
    -18.121  0.0000E+00  0.4000E+02
    -17.888  0.0000E+00  0.4000E+02
    -17.655  0.0000E+00  0.4000E+02
    -17.423  0.0000E+00  0.4000E+02
    -17.190  0.0000E+00  0.4000E+02
    -16.957  0.0000E+00  0.4000E+02
    -16.724  0.0000E+00  0.4000E+02
    -16.492  0.0000E+00  0.4000E+02
    -16.259  0.0000E+00  0.4000E+02
    -16.026  0.0000E+00  0.4000E+02
    -15.794  0.0000E+00  0.4000E+02
    -15.561  0.0000E+00  0.4000E+02
    -15.328  0.0000E+00  0.4000E+02
    -15.096  0.0000E+00  0.4000E+02
    -14.863  0.0000E+00  0.4000E+02
    -14.630  0.0000E+00  0.4000E+02
    -14.397  0.0000E+00  0.4000E+02
    -14.165  0.0000E+00  0.4000E+02
    -13.932  0.0000E+00  0.4000E+02
    -13.699  0.0000E+00  0.4000E+02
    -13.467  0.8303E+01  0.4052E+02
    -13.234  0.6446E+01  0.4209E+02
    -13.001  0.3753E+01  0.4312E+02
    -12.768  0.1372E+02  0.4650E+02
    -12.536  0.1171E+02  0.5010E+02
    -12.303  0.1162E+02  0.5288E+02
    -12.070  0.2379E+02  0.5693E+02
    -11.838  0.2453E+02  0.6369E+02
    -11.605  0.0000E+00  0.6400E+02
    -11.372  0.2886E+00  0.6400E+02
    -11.139  0.1943E+02  0.6730E+02
    -10.907  0.1072E+02  0.7024E+02
    -10.674  0.2640E+02  0.7756E+02
    -10.441  0.2383E+02  0.8329E+02
    -10.209  0.1367E+02  0.8754E+02
     -9.976  0.0000E+00  0.8800E+02
     -9.743  0.0000E+00  0.8800E+02
     -9.510  0.0000E+00  0.8800E+02
     -9.278  0.0000E+00  0.8800E+02
     -9.045  0.0000E+00  0.8800E+02
     -8.812  0.0000E+00  0.8800E+02
     -8.580  0.0000E+00  0.8800E+02
     -8.347  0.0000E+00  0.8800E+02
     -8.114  0.0000E+00  0.8800E+02
     -7.881  0.0000E+00  0.8800E+02
     -7.649  0.0000E+00  0.8800E+02
     -7.416  0.0000E+00  0.8800E+02
     -7.183  0.0000E+00  0.8800E+02
     -6.951  0.0000E+00  0.8800E+02
     -6.718  0.0000E+00  0.8800E+02
     -6.485  0.0000E+00  0.8800E+02
     -6.252  0.0000E+00  0.8800E+02
     -6.020  0.0000E+00  0.8800E+02
     -5.787  0.0000E+00  0.8800E+02
     -5.554  0.0000E+00  0.8800E+02
     -5.322  0.0000E+00  0.8800E+02
     -5.089  0.0000E+00  0.8800E+02
     -4.856  0.0000E+00  0.8800E+02
     -4.623  0.0000E+00  0.8800E+02
     -4.391  0.0000E+00  0.8800E+02
     -4.158  0.0000E+00  0.8800E+02
     -3.925  0.0000E+00  0.8800E+02
     -3.693  0.0000E+00  0.8800E+02
     -3.460  0.0000E+00  0.8800E+02
     -3.227  0.0000E+00  0.8800E+02
     -2.995  0.0000E+00  0.8800E+02
     -2.762  0.0000E+00  0.8800E+02
     -2.529  0.0000E+00  0.8800E+02
     -2.296  0.0000E+00  0.8800E+02
     -2.064  0.0000E+00  0.8800E+02
     -1.831  0.0000E+00  0.8800E+02
     -1.598  0.0000E+00  0.8800E+02
     -1.366  0.0000E+00  0.8800E+02
     -1.133  0.1479E+01  0.8806E+02
     -0.900  0.4553E+01  0.8900E+02
     -0.667  0.6153E+01  0.9026E+02
     -0.435  0.1809E+02  0.9231E+02
     -0.202  0.6480E+01  0.9448E+02
      0.031  0.8788E+01  0.9636E+02
      0.263  0.1402E+02  0.9863E+02
      0.496  0.1766E+02  0.1024E+03
      0.729  0.1753E+02  0.1065E+03
      0.962  0.1865E+02  0.1107E+03
      1.194  0.1875E+02  0.1151E+03
      1.427  0.2338E+02  0.1199E+03
      1.660  0.1750E+02  0.1252E+03
      1.892  0.1347E+02  0.1285E+03
      2.125  0.1310E+02  0.1313E+03
      2.358  0.1034E+02  0.1344E+03
      2.591  0.1474E+02  0.1386E+03
      2.823  0.1467E+02  0.1423E+03
      3.056  0.1719E+02  0.1466E+03
      3.289  0.1706E+02  0.1506E+03
      3.521  0.1955E+02  0.1551E+03
      3.754  0.6053E+01  0.1576E+03
      3.987  0.9355E+01  0.1589E+03
      4.220  0.2597E+00  0.1600E+03
      4.452  0.0000E+00  0.1600E+03
      4.685  0.0000E+00  0.1600E+03
      4.918  0.0000E+00  0.1600E+03
      5.150  0.0000E+00  0.1600E+03
      5.383  0.0000E+00  0.1600E+03
      5.616  0.0000E+00  0.1600E+03
      5.849  0.0000E+00  0.1600E+03
      6.081  0.2460E+00  0.1600E+03
      6.314  0.1082E+01  0.1601E+03
      6.547  0.3417E+01  0.1607E+03
      6.779  0.4053E+01  0.1616E+03
      7.012  0.4745E+01  0.1626E+03
      7.245  0.6139E+01  0.1639E+03
      7.478  0.8436E+01  0.1655E+03
      7.710  0.8691E+01  0.1674E+03
      7.943  0.1097E+02  0.1697E+03
      8.176  0.1921E+02  0.1732E+03
      8.408  0.1608E+02  0.1773E+03
      8.641  0.9579E+01  0.1804E+03
      8.874  0.6184E+01  0.1821E+03
      9.106  0.6779E+01  0.1836E+03
      9.339  0.5129E+01  0.1850E+03
      9.572  0.4431E+01  0.1860E+03
      9.805  0.4806E+01  0.1871E+03
     10.037  0.4929E+01  0.1882E+03
     10.270  0.4716E+01  0.1893E+03
     10.503  0.6206E+01  0.1906E+03
     10.735  0.9583E+01  0.1926E+03
     10.968  0.1296E+02  0.1951E+03
     11.201  0.8262E+01  0.1976E+03
     11.434  0.5869E+01  0.1994E+03
     11.666  0.4836E+00  0.2000E+03
     11.899  0.0000E+00  0.2000E+03
     12.132  0.0000E+00  0.2000E+03
     12.364  0.0000E+00  0.2000E+03
     12.597  0.0000E+00  0.2000E+03
     12.830  0.0000E+00  0.2000E+03
     13.063  0.0000E+00  0.2000E+03
     13.295  0.0000E+00  0.2000E+03
     13.528  0.0000E+00  0.2000E+03
     13.761  0.0000E+00  0.2000E+03
     13.993  0.0000E+00  0.2000E+03
     14.226  0.0000E+00  0.2000E+03
     14.459  0.0000E+00  0.2000E+03
     14.692  0.0000E+00  0.2000E+03
     14.924  0.0000E+00  0.2000E+03
