<?xml version="1.0" encoding="ISO-8859-1"?>
<modeling>
 <generator>
  <i name="program" type="string">vasp </i>
  <i name="version" type="string">5.4.4.18Apr17-6-g9f103f2a35  </i>
  <i name="subversion" type="string">(build Oct 23 2017 21:22:35) complex            parallel </i>
  <i name="platform" type="string">LinuxIFC </i>
  <i name="date" type="string">2017 12 27 </i>
  <i name="time" type="string">09:04:02 </i>
 </generator>
 <incar>
  <i type="string" name="PREC">accurate</i>
  <i type="int" name="IBRION">    -1</i>
  <i name="EDIFF">      0.00001000</i>
  <i name="EDIFFG">     -0.01000000</i>
  <i type="int" name="ISIF">     2</i>
  <i name="ENCUT">    500.00000000</i>
  <i type="int" name="ISMEAR">    -5</i>
  <v type="int" name="KPOINT_BSE">    -1     0     0     0</v>
 </incar>
 <structure name="primitive_cell" >
  <crystal>
   <varray name="basis" >
    <v>       0.00000000       0.00000000      -4.00490457 </v>
    <v>       0.00000000       4.00490457       0.00000000 </v>
    <v>      16.01348831       0.00000000       0.00000000 </v>
   </varray>
   <i name="volume">    256.84451190 </i>
   <varray name="rec_basis" >
    <v>       0.00000000       0.00000000      -0.24969384 </v>
    <v>       0.00000000       0.24969384       0.00000000 </v>
    <v>       0.06244736       0.00000000       0.00000000 </v>
   </varray>
  </crystal>
  <varray name="positions" >
   <v>      -0.50000000      -0.50000000       0.12220426 </v>
   <v>      -0.50000000      -0.50000000      -0.00241976 </v>
   <v>      -0.50000000       0.00000000       0.12481733 </v>
   <v>       0.00000000      -0.50000000       0.12481733 </v>
   <v>      -0.50000000      -0.50000000       0.25000000 </v>
   <v>       0.00000000       0.00000000       0.25000000 </v>
   <v>       0.00000000       0.00000000      -0.01414587 </v>
   <v>      -0.50000000      -0.50000000      -0.12838533 </v>
   <v>      -0.50000000      -0.50000000       0.37779574 </v>
   <v>      -0.50000000       0.00000000      -0.12591131 </v>
   <v>       0.00000000      -0.50000000      -0.12591131 </v>
   <v>      -0.50000000       0.00000000       0.37518267 </v>
   <v>       0.00000000      -0.50000000       0.37518267 </v>
   <v>      -0.50000000      -0.50000000      -0.25000000 </v>
   <v>      -0.50000000      -0.50000000      -0.49758024 </v>
   <v>       0.00000000       0.00000000      -0.25000000 </v>
   <v>       0.00000000       0.00000000      -0.48585413 </v>
   <v>      -0.50000000      -0.50000000      -0.37161467 </v>
   <v>      -0.50000000       0.00000000      -0.37408869 </v>
   <v>       0.00000000      -0.50000000      -0.37408869 </v>
  </varray>
 </structure>
 <varray name="primitive_index" >
  <v type="int" >        1 </v>
  <v type="int" >       12 </v>
  <v type="int" >        4 </v>
  <v type="int" >        5 </v>
  <v type="int" >        3 </v>
  <v type="int" >       15 </v>
  <v type="int" >       18 </v>
  <v type="int" >       20 </v>
  <v type="int" >        2 </v>
  <v type="int" >       13 </v>
  <v type="int" >       14 </v>
  <v type="int" >        7 </v>
  <v type="int" >        8 </v>
  <v type="int" >        9 </v>
  <v type="int" >        6 </v>
  <v type="int" >       17 </v>
  <v type="int" >       16 </v>
  <v type="int" >       19 </v>
  <v type="int" >       10 </v>
  <v type="int" >       11 </v>
 </varray>
 <kpoints>
  <generation param="Gamma">
   <v type="int" name="divisions">       8        8        2 </v>
   <v name="usershift">      0.00000000       0.00000000       0.00000000 </v>
   <v name="genvec1">      0.12500000       0.00000000       0.00000000 </v>
   <v name="genvec2">      0.00000000       0.12500000       0.00000000 </v>
   <v name="genvec3">      0.00000000       0.00000000       0.50000000 </v>
   <v name="shift">      0.00000000       0.00000000       0.00000000 </v>
  </generation>
  <varray name="kpointlist" >
   <v>       0.00000000       0.00000000       0.00000000 </v>
   <v>       0.12500000       0.00000000       0.00000000 </v>
   <v>       0.25000000       0.00000000       0.00000000 </v>
   <v>       0.37500000       0.00000000       0.00000000 </v>
   <v>       0.50000000       0.00000000       0.00000000 </v>
   <v>       0.12500000       0.12500000       0.00000000 </v>
   <v>       0.25000000       0.12500000       0.00000000 </v>
   <v>       0.37500000       0.12500000       0.00000000 </v>
   <v>       0.50000000       0.12500000       0.00000000 </v>
   <v>       0.25000000       0.25000000       0.00000000 </v>
   <v>       0.37500000       0.25000000       0.00000000 </v>
   <v>       0.50000000       0.25000000       0.00000000 </v>
   <v>       0.37500000       0.37500000       0.00000000 </v>
   <v>       0.50000000       0.37500000       0.00000000 </v>
   <v>       0.50000000       0.50000000       0.00000000 </v>
   <v>       0.00000000       0.00000000       0.50000000 </v>
   <v>       0.12500000       0.00000000       0.50000000 </v>
   <v>       0.25000000       0.00000000       0.50000000 </v>
   <v>       0.37500000       0.00000000       0.50000000 </v>
   <v>       0.50000000       0.00000000       0.50000000 </v>
   <v>       0.12500000       0.12500000       0.50000000 </v>
   <v>       0.25000000       0.12500000       0.50000000 </v>
   <v>       0.37500000       0.12500000       0.50000000 </v>
   <v>       0.50000000       0.12500000       0.50000000 </v>
   <v>       0.25000000       0.25000000       0.50000000 </v>
   <v>       0.37500000       0.25000000       0.50000000 </v>
   <v>       0.50000000       0.25000000       0.50000000 </v>
   <v>       0.37500000       0.37500000       0.50000000 </v>
   <v>       0.50000000       0.37500000       0.50000000 </v>
   <v>       0.50000000       0.50000000       0.50000000 </v>
  </varray>
  <varray name="weights" >
   <v>       0.00781250 </v>
   <v>       0.03125000 </v>
   <v>       0.03125000 </v>
   <v>       0.03125000 </v>
   <v>       0.01562500 </v>
   <v>       0.03125000 </v>
   <v>       0.06250000 </v>
   <v>       0.06250000 </v>
   <v>       0.03125000 </v>
   <v>       0.03125000 </v>
   <v>       0.06250000 </v>
   <v>       0.03125000 </v>
   <v>       0.03125000 </v>
   <v>       0.03125000 </v>
   <v>       0.00781250 </v>
   <v>       0.00781250 </v>
   <v>       0.03125000 </v>
   <v>       0.03125000 </v>
   <v>       0.03125000 </v>
   <v>       0.01562500 </v>
   <v>       0.03125000 </v>
   <v>       0.06250000 </v>
   <v>       0.06250000 </v>
   <v>       0.03125000 </v>
   <v>       0.03125000 </v>
   <v>       0.06250000 </v>
   <v>       0.03125000 </v>
   <v>       0.03125000 </v>
   <v>       0.03125000 </v>
   <v>       0.00781250 </v>
  </varray>
  <varray name="tetrahedronlist"  type="int" >
   <v type="int" >        4        1        2        2       17 </v>
   <v type="int" >        4        2        2        6       17 </v>
   <v type="int" >        4        2        6       17       21 </v>
   <v type="int" >        4        1        2       16       17 </v>
   <v type="int" >        4        2       16       17       17 </v>
   <v type="int" >        4        2       17       17       21 </v>
   <v type="int" >        4        2        3        6       18 </v>
   <v type="int" >        4        3        6        7       18 </v>
   <v type="int" >        4        6        7       18       22 </v>
   <v type="int" >        4        2        6       17       18 </v>
   <v type="int" >        4        6       17       18       21 </v>
   <v type="int" >        4        6       18       21       22 </v>
   <v type="int" >        4        3        4        7       19 </v>
   <v type="int" >        4        4        7        8       19 </v>
   <v type="int" >        4        7        8       19       23 </v>
   <v type="int" >        4        3        7       18       19 </v>
   <v type="int" >        4        7       18       19       22 </v>
   <v type="int" >        4        7       19       22       23 </v>
   <v type="int" >        4        4        5        8       20 </v>
   <v type="int" >        4        5        8        9       20 </v>
   <v type="int" >        4        8        9       20       24 </v>
   <v type="int" >        4        4        8       19       20 </v>
   <v type="int" >        4        8       19       20       23 </v>
   <v type="int" >        4        8       20       23       24 </v>
   <v type="int" >        4        4        5        9       19 </v>
   <v type="int" >        4        4        8        9       19 </v>
   <v type="int" >        4        8        9       19       23 </v>
   <v type="int" >        4        5        9       19       20 </v>
   <v type="int" >        4        9       19       20       24 </v>
   <v type="int" >        4        9       19       23       24 </v>
   <v type="int" >        4        3        4        8       18 </v>
   <v type="int" >        4        3        7        8       18 </v>
   <v type="int" >        4        7        8       18       22 </v>
   <v type="int" >        4        4        8       18       19 </v>
   <v type="int" >        4        8       18       19       23 </v>
   <v type="int" >        4        8       18       22       23 </v>
   <v type="int" >        4        2        3        7       17 </v>
   <v type="int" >        4        2        6        7       17 </v>
   <v type="int" >        4        6        7       17       21 </v>
   <v type="int" >        4        3        7       17       18 </v>
   <v type="int" >        4        7       17       18       22 </v>
   <v type="int" >        4        7       17       21       22 </v>
   <v type="int" >        4        1        2        6       16 </v>
   <v type="int" >        4        2        6       16       17 </v>
   <v type="int" >        4        6       16       17       21 </v>
   <v type="int" >        4        2        3        6       21 </v>
   <v type="int" >        4        3        6        7       21 </v>
   <v type="int" >        4        3        7       21       22 </v>
   <v type="int" >        4        2        3       17       21 </v>
   <v type="int" >        4        3       17       18       21 </v>
   <v type="int" >        4        3       18       21       22 </v>
   <v type="int" >        4        6        7        7       22 </v>
   <v type="int" >        4        7        7       10       22 </v>
   <v type="int" >        4        7       10       22       25 </v>
   <v type="int" >        4        6        7       21       22 </v>
   <v type="int" >        4        7       21       22       22 </v>
   <v type="int" >        4        7       22       22       25 </v>
   <v type="int" >        4        7        8       10       23 </v>
   <v type="int" >        4        8       10       11       23 </v>
   <v type="int" >        4       10       11       23       26 </v>
   <v type="int" >        4        7       10       22       23 </v>
   <v type="int" >        4       10       22       23       25 </v>
   <v type="int" >        4       10       23       25       26 </v>
   <v type="int" >        4        8        9       11       24 </v>
   <v type="int" >        4        9       11       12       24 </v>
   <v type="int" >        4       11       12       24       27 </v>
   <v type="int" >        4        8       11       23       24 </v>
   <v type="int" >        4       11       23       24       26 </v>
   <v type="int" >        4       11       24       26       27 </v>
   <v type="int" >        4        8        9       12       23 </v>
   <v type="int" >        4        8       11       12       23 </v>
   <v type="int" >        4       11       12       23       26 </v>
   <v type="int" >        4        9       12       23       24 </v>
   <v type="int" >        4       12       23       24       27 </v>
   <v type="int" >        4       12       23       26       27 </v>
   <v type="int" >        4        7        8       11       22 </v>
   <v type="int" >        4        7       10       11       22 </v>
   <v type="int" >        4       10       11       22       25 </v>
   <v type="int" >        4        8       11       22       23 </v>
   <v type="int" >        4       11       22       23       26 </v>
   <v type="int" >        4       11       22       25       26 </v>
   <v type="int" >        4        6        7       10       21 </v>
   <v type="int" >        4        7       10       21       22 </v>
   <v type="int" >        4       10       21       22       25 </v>
   <v type="int" >        4        3        4        7       22 </v>
   <v type="int" >        4        4        7        8       22 </v>
   <v type="int" >        4        4        8       22       23 </v>
   <v type="int" >        4        3        4       18       22 </v>
   <v type="int" >        4        4       18       19       22 </v>
   <v type="int" >        4        4       19       22       23 </v>
   <v type="int" >        4        7        8       10       25 </v>
   <v type="int" >        4        8       10       11       25 </v>
   <v type="int" >        4        8       11       25       26 </v>
   <v type="int" >        4        7        8       22       25 </v>
   <v type="int" >        4        8       22       23       25 </v>
   <v type="int" >        4        8       23       25       26 </v>
   <v type="int" >        4       10       11       11       26 </v>
   <v type="int" >        4       11       11       13       26 </v>
   <v type="int" >        4       11       13       26       28 </v>
   <v type="int" >        4       10       11       25       26 </v>
   <v type="int" >        4       11       25       26       26 </v>
   <v type="int" >        4       11       26       26       28 </v>
   <v type="int" >        4       11       12       13       27 </v>
   <v type="int" >        4       12       13       14       27 </v>
   <v type="int" >        4       13       14       27       29 </v>
   <v type="int" >        4       11       13       26       27 </v>
   <v type="int" >        4       13       26       27       28 </v>
   <v type="int" >        4       13       27       28       29 </v>
   <v type="int" >        4       11       12       14       26 </v>
   <v type="int" >        4       11       13       14       26 </v>
   <v type="int" >        4       13       14       26       28 </v>
   <v type="int" >        4       12       14       26       27 </v>
   <v type="int" >        4       14       26       27       29 </v>
   <v type="int" >        4       14       26       28       29 </v>
   <v type="int" >        4       10       11       13       25 </v>
   <v type="int" >        4       11       13       25       26 </v>
   <v type="int" >        4       13       25       26       28 </v>
   <v type="int" >        4        4        5        8       23 </v>
   <v type="int" >        4        5        8        9       23 </v>
   <v type="int" >        4        5        9       23       24 </v>
   <v type="int" >        4        4        5       19       23 </v>
   <v type="int" >        4        5       19       20       23 </v>
   <v type="int" >        4        5       20       23       24 </v>
   <v type="int" >        4        8        9       11       26 </v>
   <v type="int" >        4        9       11       12       26 </v>
   <v type="int" >        4        9       12       26       27 </v>
   <v type="int" >        4        8        9       23       26 </v>
   <v type="int" >        4        9       23       24       26 </v>
   <v type="int" >        4        9       24       26       27 </v>
   <v type="int" >        4       11       12       13       28 </v>
   <v type="int" >        4       12       13       14       28 </v>
   <v type="int" >        4       12       14       28       29 </v>
   <v type="int" >        4       11       12       26       28 </v>
   <v type="int" >        4       12       26       27       28 </v>
   <v type="int" >        4       12       27       28       29 </v>
   <v type="int" >        4       13       14       14       29 </v>
   <v type="int" >        4       14       14       15       29 </v>
   <v type="int" >        4       14       15       29       30 </v>
   <v type="int" >        4       13       14       28       29 </v>
   <v type="int" >        4       14       28       29       29 </v>
   <v type="int" >        4       14       29       29       30 </v>
   <v type="int" >        4       13       14       15       28 </v>
   <v type="int" >        4       14       15       28       29 </v>
   <v type="int" >        4       15       28       29       30 </v>
   <v type="int" >        4        4        5        9       24 </v>
   <v type="int" >        4        4        8        9       24 </v>
   <v type="int" >        4        4        8       23       24 </v>
   <v type="int" >        4        4        5       20       24 </v>
   <v type="int" >        4        4       19       20       24 </v>
   <v type="int" >        4        4       19       23       24 </v>
   <v type="int" >        4        8        9       12       27 </v>
   <v type="int" >        4        8       11       12       27 </v>
   <v type="int" >        4        8       11       26       27 </v>
   <v type="int" >        4        8        9       24       27 </v>
   <v type="int" >        4        8       23       24       27 </v>
   <v type="int" >        4        8       23       26       27 </v>
   <v type="int" >        4       11       12       14       29 </v>
   <v type="int" >        4       11       13       14       29 </v>
   <v type="int" >        4       11       13       28       29 </v>
   <v type="int" >        4       11       12       27       29 </v>
   <v type="int" >        4       11       26       27       29 </v>
   <v type="int" >        4       11       26       28       29 </v>
   <v type="int" >        4       13       14       15       30 </v>
   <v type="int" >        4       13       14       29       30 </v>
   <v type="int" >        4       13       28       29       30 </v>
   <v type="int" >        4        3        4        8       23 </v>
   <v type="int" >        4        3        7        8       23 </v>
   <v type="int" >        4        3        7       22       23 </v>
   <v type="int" >        4        3        4       19       23 </v>
   <v type="int" >        4        3       18       19       23 </v>
   <v type="int" >        4        3       18       22       23 </v>
   <v type="int" >        4        7        8       11       26 </v>
   <v type="int" >        4        7       10       11       26 </v>
   <v type="int" >        4        7       10       25       26 </v>
   <v type="int" >        4        7        8       23       26 </v>
   <v type="int" >        4        7       22       23       26 </v>
   <v type="int" >        4        7       22       25       26 </v>
   <v type="int" >        4       10       11       13       28 </v>
   <v type="int" >        4       10       11       26       28 </v>
   <v type="int" >        4       10       25       26       28 </v>
   <v type="int" >        4        2        3        7       22 </v>
   <v type="int" >        4        2        6        7       22 </v>
   <v type="int" >        4        2        6       21       22 </v>
   <v type="int" >        4        2        3       18       22 </v>
   <v type="int" >        4        2       17       18       22 </v>
   <v type="int" >        4        2       17       21       22 </v>
   <v type="int" >        4        6        7       10       25 </v>
   <v type="int" >        4        6        7       22       25 </v>
   <v type="int" >        4        6       21       22       25 </v>
   <v type="int" >        4        1        2        6       21 </v>
   <v type="int" >        4        1        2       17       21 </v>
   <v type="int" >        4        1       16       17       21 </v>
  </varray>
  <i name="volumeweight">      0.00130208 </i>
 </kpoints>
 <parameters>
  <separator name="general" >
   <i type="string" name="SYSTEM">unknown system</i>
   <i type="logical" name="LCOMPAT"> F  </i>
  </separator>
  <separator name="electronic" >
   <i type="string" name="PREC">accura</i>
   <i name="ENMAX">    500.00000000</i>
   <i name="ENAUG">    605.39200000</i>
   <i name="EDIFF">      0.00001000</i>
   <i type="int" name="IALGO">    38</i>
   <i type="int" name="IWAVPR">    10</i>
   <i type="int" name="NBANDS">   100</i>
   <i name="NELECT">    162.00000000</i>
   <i type="int" name="TURBO">     0</i>
   <i type="int" name="IRESTART">     0</i>
   <i type="int" name="NREBOOT">     0</i>
   <i type="int" name="NMIN">     0</i>
   <i name="EREF">      0.00000000</i>
   <separator name="electronic smearing" >
    <i type="int" name="ISMEAR">    -5</i>
    <i name="SIGMA">      0.20000000</i>
    <i name="KSPACING">      0.50000000</i>
    <i type="logical" name="KGAMMA"> T  </i>
   </separator>
   <separator name="electronic projectors" >
    <i type="logical" name="LREAL"> F  </i>
    <v name="ROPT">      0.00000000      0.00000000      0.00000000      0.00000000</v>
    <i type="int" name="LMAXPAW">  -100</i>
    <i type="int" name="LMAXMIX">     2</i>
    <i type="logical" name="NLSPLINE"> F  </i>
   </separator>
   <separator name="electronic startup" >
    <i type="int" name="ISTART">     1</i>
    <i type="int" name="ICHARG">     0</i>
    <i type="int" name="INIWAV">     1</i>
   </separator>
   <separator name="electronic spin" >
    <i type="int" name="ISPIN">     1</i>
    <i type="logical" name="LNONCOLLINEAR"> F  </i>
    <v name="MAGMOM">      1.00000000      1.00000000      1.00000000      1.00000000      1.00000000      1.00000000      1.00000000      1.00000000      1.00000000      1.00000000      1.00000000      1.00000000      1.00000000      1.00000000      1.00000000      1.00000000      1.00000000      1.00000000      1.00000000      1.00000000
</v>
    <i name="NUPDOWN">     -1.00000000</i>
    <i type="logical" name="LSORBIT"> F  </i>
    <v name="SAXIS">      0.00000000      0.00000000      1.00000000</v>
    <i type="logical" name="LSPIRAL"> F  </i>
    <v name="QSPIRAL">      0.00000000      0.00000000      0.00000000</v>
    <i type="logical" name="LZEROZ"> F  </i>
   </separator>
   <separator name="electronic exchange-correlation" >
    <i type="logical" name="LASPH"> F  </i>
    <i type="logical" name="LMETAGGA"> F  </i>
   </separator>
   <separator name="electronic convergence" >
    <i type="int" name="NELM">    60</i>
    <i type="int" name="NELMDL">     0</i>
    <i type="int" name="NELMIN">     2</i>
    <i name="ENINI">    500.00000000</i>
    <separator name="electronic convergence detail" >
     <i type="logical" name="LDIAG"> T  </i>
     <i type="logical" name="LSUBROT"> F  </i>
     <i name="WEIMIN">      0.00000000</i>
     <i name="EBREAK">      0.00000003</i>
     <i name="DEPER">      0.30000000</i>
     <i type="int" name="NRMM">     4</i>
     <i name="TIME">      0.40000000</i>
    </separator>
   </separator>
   <separator name="electronic mixer" >
    <i name="AMIX">      0.40000000</i>
    <i name="BMIX">      1.00000000</i>
    <i name="AMIN">      0.10000000</i>
    <i name="AMIX_MAG">      1.60000000</i>
    <i name="BMIX_MAG">      1.00000000</i>
    <separator name="electronic mixer details" >
     <i type="int" name="IMIX">     4</i>
     <i type="logical" name="MIXFIRST"> F  </i>
     <i type="int" name="MAXMIX">   -45</i>
     <i name="WC">    100.00000000</i>
     <i type="int" name="INIMIX">     1</i>
     <i type="int" name="MIXPRE">     1</i>
     <i type="int" name="MREMOVE">     5</i>
    </separator>
   </separator>
   <separator name="electronic dipolcorrection" >
    <i type="logical" name="LDIPOL"> F  </i>
    <i type="logical" name="LMONO"> F  </i>
    <i type="int" name="IDIPOL">     0</i>
    <i name="EPSILON">      1.00000000</i>
    <v name="DIPOL">   -100.00000000   -100.00000000   -100.00000000</v>
    <i name="EFIELD">      0.00000000</i>
   </separator>
  </separator>
  <separator name="grids" >
   <i type="int" name="NGX">    30</i>
   <i type="int" name="NGY">    30</i>
   <i type="int" name="NGZ">   120</i>
   <i type="int" name="NGXF">    60</i>
   <i type="int" name="NGYF">    60</i>
   <i type="int" name="NGZF">   240</i>
   <i type="logical" name="ADDGRID"> F  </i>
  </separator>
  <separator name="ionic" >
   <i type="int" name="NSW">     0</i>
   <i type="int" name="IBRION">    -1</i>
   <i type="int" name="MDALGO">     0</i>
   <i type="int" name="ISIF">     2</i>
   <i name="PSTRESS">      0.00000000</i>
   <i name="EDIFFG">     -0.01000000</i>
   <i type="int" name="NFREE">     0</i>
   <i name="POTIM">      0.50000000</i>
   <i name="SMASS">     -3.00000000</i>
   <i name="SCALEE">      1.00000000</i>
  </separator>
  <separator name="ionic md" >
   <i name="TEBEG">      0.00010000</i>
   <i name="TEEND">      0.00010000</i>
   <i type="int" name="NBLOCK">     1</i>
   <i type="int" name="KBLOCK">     1</i>
   <i type="int" name="NPACO">   256</i>
   <i name="APACO">     16.00000000</i>
  </separator>
  <separator name="symmetry" >
   <i type="int" name="ISYM">     2</i>
   <i name="SYMPREC">      0.00001000</i>
  </separator>
  <separator name="dos" >
   <i type="int" name="LORBIT">     0</i>
   <v name="RWIGS">     -1.00000000     -1.00000000     -1.00000000     -1.00000000</v>
   <i type="int" name="NEDOS">   301</i>
   <i name="EMIN">     10.00000000</i>
   <i name="EMAX">    -10.00000000</i>
   <i name="EFERMI">      0.00000000</i>
  </separator>
  <separator name="writing" >
   <i type="int" name="NWRITE">     2</i>
   <i type="logical" name="LWAVE"> T  </i>
   <i type="logical" name="LDOWNSAMPLE"> F  </i>
   <i type="logical" name="LCHARG"> T  </i>
   <i type="logical" name="LPARD"> F  </i>
   <i type="logical" name="LVTOT"> F  </i>
   <i type="logical" name="LVHAR"> F  </i>
   <i type="logical" name="LELF"> F  </i>
   <i type="logical" name="LOPTICS"> F  </i>
   <v name="STM">      0.00000000      0.00000000      0.00000000      0.00000000      0.00000000      0.00000000      0.00000000</v>
  </separator>
  <separator name="performance" >
   <i type="int" name="NPAR">     4</i>
   <i type="int" name="NSIM">     4</i>
   <i type="int" name="NBLK">    -1</i>
   <i type="logical" name="LPLANE"> T  </i>
   <i type="logical" name="LSCALAPACK"> T  </i>
   <i type="logical" name="LSCAAWARE"> F  </i>
   <i type="logical" name="LSCALU"> F  </i>
   <i type="logical" name="LASYNC"> F  </i>
   <i type="logical" name="LORBITALREAL"> F  </i>
  </separator>
  <separator name="miscellaneous" >
   <i type="int" name="IDIOT">     3</i>
   <i type="int" name="ISPECIAL">     0</i>
   <i type="logical" name="LMUSIC"> F  </i>
   <v name="POMASS">     92.91000000     16.00000000     87.62000000     47.88000000</v>
   <v name="DARWINR">      0.00000000      0.00000000      0.00000000      0.00000000</v>
   <v name="DARWINV">      1.00000000      1.00000000      1.00000000      1.00000000</v>
   <i type="logical" name="LCORR"> T  </i>
  </separator>
  <i type="logical" name="GGA_COMPAT"> T  </i>
  <i type="logical" name="LBERRY"> F  </i>
  <i type="int" name="ICORELEVEL">     0</i>
  <i type="logical" name="LDAU"> F  </i>
  <i type="int" name="I_CONSTRAINED_M">     0</i>
  <separator name="electronic exchange-correlation" >
   <i type="string" name="GGA">--</i>
   <i type="int" name="VOSKOWN">     0</i>
   <i type="logical" name="LHFCALC"> F  </i>
   <i type="string" name="PRECFOCK"></i>
   <i type="logical" name="LSYMGRAD"> F  </i>
   <i type="logical" name="LHFONE"> F  </i>
   <i type="logical" name="LRHFCALC"> F  </i>
   <i type="logical" name="LTHOMAS"> F  </i>
   <i type="logical" name="LMODELHF"> F  </i>
   <i name="ENCUT4O">     -1.00000000</i>
   <i type="int" name="EXXOEP">     0</i>
   <i type="int" name="FOURORBIT">     0</i>
   <i name="AEXX">      0.00000000</i>
   <i name="HFALPHA">      0.00000000</i>
   <i name="MCALPHA">      0.00000000</i>
   <i name="ALDAX">      1.00000000</i>
   <i name="AGGAX">      1.00000000</i>
   <i name="ALDAC">      1.00000000</i>
   <i name="AGGAC">      1.00000000</i>
   <i type="int" name="NKREDX">     1</i>
   <i type="int" name="NKREDY">     1</i>
   <i type="int" name="NKREDZ">     1</i>
   <i type="logical" name="SHIFTRED"> F  </i>
   <i type="logical" name="ODDONLY"> F  </i>
   <i type="logical" name="EVENONLY"> F  </i>
   <i type="int" name="LMAXFOCK">     0</i>
   <i type="int" name="NMAXFOCKAE">     0</i>
   <i type="logical" name="LFOCKAEDFT"> F  </i>
   <i name="HFSCREEN">      0.00000000</i>
   <i name="HFSCREENC">      0.00000000</i>
   <i type="int" name="NBANDSGWLOW">     0</i>
  </separator>
  <separator name="vdW DFT" >
   <i type="logical" name="LUSE_VDW"> F  </i>
   <i name="Zab_VDW">     -0.84910000</i>
   <i name="PARAM1">      0.12340000</i>
   <i name="PARAM2">      1.00000000</i>
   <i name="PARAM3">      0.00000000</i>
  </separator>
  <separator name="model GW" >
   <i type="int" name="MODEL_GW">     0</i>
   <i name="MODEL_EPS0">      7.70533536</i>
   <i name="MODEL_ALPHA">      1.00000000</i>
  </separator>
  <separator name="linear response parameters" >
   <i type="logical" name="LEPSILON"> F  </i>
   <i type="logical" name="LRPA"> F  </i>
   <i type="logical" name="LNABLA"> F  </i>
   <i type="logical" name="LVEL"> F  </i>
   <i type="int" name="KINTER">     0</i>
   <i name="CSHIFT">      0.10000000</i>
   <i name="OMEGAMAX">     -1.00000000</i>
   <i name="DEG_THRESHOLD">      0.00200000</i>
   <i name="RTIME">     -0.10000000</i>
   <i name="WPLASMAI">      0.00000000</i>
   <v name="DFIELD">      0.00000000      0.00000000      0.00000000</v>
   <v name="WPLASMA">      0.00000000      0.00000000      0.00000000      0.00000000      0.00000000      0.00000000      0.00000000      0.00000000      0.00000000</v>
  </separator>
  <separator name="orbital magnetization" >
   <i type="logical" name="NUCIND"> F  </i>
   <v name="MAGPOS">      0.00000000      0.00000000      0.00000000</v>
   <i type="logical" name="LNICSALL"> T  </i>
   <i type="logical" name="ORBITALMAG"> F  </i>
   <i type="logical" name="LMAGBLOCH"> F  </i>
   <i type="logical" name="LCHIMAG"> F  </i>
   <i type="logical" name="LGAUGE"> T  </i>
   <i type="int" name="MAGATOM">     0</i>
   <v name="MAGDIPOL">      0.00000000      0.00000000      0.00000000</v>
   <v name="AVECCONST">      0.00000000      0.00000000      0.00000000</v>
  </separator>
  <separator name="response functions" >
   <i type="logical" name="LADDER"> F  </i>
   <i type="logical" name="LRPAFORCE"> F  </i>
   <i type="logical" name="LFXC"> F  </i>
   <i type="logical" name="LHARTREE"> T  </i>
   <i type="int" name="IBSE">     0</i>
   <v type="int" name="KPOINT">    -1     0     0     0</v>
   <i type="logical" name="LTCTE"> F  </i>
   <i type="logical" name="LTETE"> F  </i>
   <i type="logical" name="LTRIPLET"> F  </i>
   <i type="logical" name="LFXCEPS"> F  </i>
   <i type="logical" name="LFXHEG"> F  </i>
   <i type="int" name="NATURALO">     2</i>
   <i type="logical" name="L2ORDER"> F  </i>
   <i type="logical" name="LMP2LT"> F  </i>
   <i type="logical" name="LUSEW"> F  </i>
   <i name="ENCUTGW">     -2.00000000</i>
   <i name="ENCUTGWSOFT">     -2.00000000</i>
   <i name="ENCUTLF">     -1.00000000</i>
   <i type="int" name="LMAXMP2">    -1</i>
   <i name="SCISSOR">      0.00000000</i>
   <i type="int" name="NOMEGA">     0</i>
   <i type="int" name="NOMEGAR">     0</i>
   <i type="int" name="NBANDSGW">    -1</i>
   <i type="int" name="NBANDSO">    -1</i>
   <i type="int" name="NBANDSV">    -1</i>
   <i type="int" name="NELM">     1</i>
   <i type="int" name="NELMHF">     1</i>
   <i type="int" name="DIM">     3</i>
   <i type="int" name="ANTIRES">     0</i>
   <i name="OMEGAMAX">    -30.00000000</i>
   <i name="OMEGAMIN">    -30.00000000</i>
   <i name="OMEGATL">   -200.00000000</i>
   <i type="int" name="OMEGAGRID">   140</i>
   <i name="CSHIFT">     -0.10000000</i>
   <i type="logical" name="SELFENERGY"> F  </i>
   <i type="logical" name="LSPECTRAL"> F  </i>
   <i type="logical" name="LSPECTRALGW"> F  </i>
   <i type="logical" name="LSINGLES"> F  </i>
   <i type="logical" name="LFERMIGW"> F  </i>
   <i type="logical" name="ODDONLYGW"> F  </i>
   <i type="logical" name="EVENONLYGW"> F  </i>
   <i type="int" name="NKREDLFX">     1</i>
   <i type="int" name="NKREDLFY">     1</i>
   <i type="int" name="NKREDLFZ">     1</i>
   <i type="int" name="MAXMEM">  2800</i>
   <i type="int" name="TELESCOPE">     0</i>
   <i type="int" name="TAUPAR">     1</i>
   <i type="int" name="OMEGAPAR">    -1</i>
   <i name="LAMBDA">      1.00000000</i>
  </separator>
  <separator name="External order field" >
   <i name="OFIELD_KAPPA">      0.00000000</i>
   <v name="OFIELD_K">      0.00000000      0.00000000      0.00000000</v>
   <i name="OFIELD_Q6_NEAR">      0.00000000</i>
   <i name="OFIELD_Q6_FAR">      0.00000000</i>
   <i name="OFIELD_A">      0.00000000</i>
  </separator>
 </parameters>
 <atominfo>
  <atoms>      20 </atoms>
  <types>       4 </types>
  <array name="atoms" >
   <dimension dim="1">ion</dimension>
   <field type="string">element</field>
   <field type="int">atomtype</field>
   <set>
    <rc><c>Nb</c><c>   1</c></rc>
    <rc><c>Nb</c><c>   1</c></rc>
    <rc><c>O </c><c>   2</c></rc>
    <rc><c>O </c><c>   2</c></rc>
    <rc><c>O </c><c>   2</c></rc>
    <rc><c>O </c><c>   2</c></rc>
    <rc><c>O </c><c>   2</c></rc>
    <rc><c>O </c><c>   2</c></rc>
    <rc><c>O </c><c>   2</c></rc>
    <rc><c>O </c><c>   2</c></rc>
    <rc><c>O </c><c>   2</c></rc>
    <rc><c>O </c><c>   2</c></rc>
    <rc><c>O </c><c>   2</c></rc>
    <rc><c>O </c><c>   2</c></rc>
    <rc><c>Sr</c><c>   3</c></rc>
    <rc><c>Sr</c><c>   3</c></rc>
    <rc><c>Sr</c><c>   3</c></rc>
    <rc><c>Sr</c><c>   3</c></rc>
    <rc><c>Ti</c><c>   4</c></rc>
    <rc><c>Ti</c><c>   4</c></rc>
   </set>
  </array>
  <array name="atomtypes" >
   <dimension dim="1">type</dimension>
   <field type="int">atomspertype</field>
   <field type="string">element</field>
   <field>mass</field>
   <field>valence</field>
   <field type="string">pseudopotential</field>
   <set>
    <rc><c>   2</c><c>Nb</c><c>     92.91000000</c><c>     13.00000000</c><c>  PAW_PBE Nb_sv 25May2007               </c></rc>
    <rc><c>  12</c><c>O </c><c>     16.00000000</c><c>      6.00000000</c><c>  PAW_PBE O 08Apr2002                   </c></rc>
    <rc><c>   4</c><c>Sr</c><c>     87.62000000</c><c>     10.00000000</c><c>  PAW_PBE Sr_sv 07Sep2000               </c></rc>
    <rc><c>   2</c><c>Ti</c><c>     47.88000000</c><c>     12.00000000</c><c>  PAW_PBE Ti_sv 26Sep2005               </c></rc>
   </set>
  </array>
 </atominfo>
 <structure name="initialpos" >
  <crystal>
   <varray name="basis" >
    <v>       0.00000000       0.00000000      -4.00490457 </v>
    <v>       0.00000000       4.00490457       0.00000000 </v>
    <v>      16.01348831       0.00000000       0.00000000 </v>
   </varray>
   <i name="volume">    256.84451190 </i>
   <varray name="rec_basis" >
    <v>       0.00000000       0.00000000      -0.24969384 </v>
    <v>       0.00000000       0.24969384       0.00000000 </v>
    <v>       0.06244736       0.00000000       0.00000000 </v>
   </varray>
  </crystal>
  <varray name="positions" >
   <v>       0.50000000       0.50000000       0.12220426 </v>
   <v>       0.50000000       0.50000000       0.37779574 </v>
   <v>       0.50000000       0.50000000       0.25000000 </v>
   <v>       0.50000000       0.00000000       0.12481733 </v>
   <v>       0.00000000       0.50000000       0.12481733 </v>
   <v>       0.50000000       0.50000000       0.50241976 </v>
   <v>       0.50000000       0.00000000       0.37518267 </v>
   <v>       0.00000000       0.50000000       0.37518267 </v>
   <v>       0.50000000       0.50000000       0.75000000 </v>
   <v>       0.50000000       0.00000000       0.62591131 </v>
   <v>       0.00000000       0.50000000       0.62591131 </v>
   <v>       0.50000000       0.50000000       0.99758024 </v>
   <v>       0.50000000       0.00000000       0.87408869 </v>
   <v>       0.00000000       0.50000000       0.87408869 </v>
   <v>       0.00000000       0.00000000       0.25000000 </v>
   <v>       0.00000000       0.00000000       0.51414587 </v>
   <v>       0.00000000       0.00000000       0.75000000 </v>
   <v>       0.00000000       0.00000000       0.98585413 </v>
   <v>       0.50000000       0.50000000       0.62838533 </v>
   <v>       0.50000000       0.50000000       0.87161467 </v>
  </varray>
 </structure>
 <calculation>
  <scstep>
   <time name="dav">    2.55    2.56</time>
   <time name="total">    2.74    2.75</time>
   <energy>
    <i name="alphaZ">    897.41388675 </i>
    <i name="ewald"> -11583.18306702 </i>
    <i name="hartreedc">  -3431.15238969 </i>
    <i name="XCdc">    721.10330887 </i>
    <i name="pawpsdc">  18072.10762727 </i>
    <i name="pawaedc"> -17975.72135441 </i>
    <i name="eentropy">      0.00000000 </i>
    <i name="bandstr">  -1710.00342165 </i>
    <i name="atom">  14846.93811678 </i>
    <i name="e_fr_energy">   -162.49729309 </i>
    <i name="e_wo_entrp">   -162.49729309 </i>
    <i name="e_0_energy">   -162.49729309 </i>
   </energy>
  </scstep>
  <scstep>
   <time name="dav">    2.71    2.71</time>
   <time name="total">    2.89    2.90</time>
   <energy>
    <i name="e_fr_energy">   -162.49736073 </i>
    <i name="e_wo_entrp">   -162.49736073 </i>
    <i name="e_0_energy">   -162.49736073 </i>
   </energy>
  </scstep>
  <scstep>
   <time name="dav">    2.24    2.24</time>
   <time name="total">    2.42    2.43</time>
   <energy>
    <i name="e_fr_energy">   -162.49701798 </i>
    <i name="e_wo_entrp">   -162.49701798 </i>
    <i name="e_0_energy">   -162.49701798 </i>
   </energy>
  </scstep>
  <scstep>
   <time name="dav">    2.17    2.18</time>
   <time name="total">    2.36    2.37</time>
   <energy>
    <i name="e_fr_energy">   -162.49740228 </i>
    <i name="e_wo_entrp">   -162.49740228 </i>
    <i name="e_0_energy">   -162.49740228 </i>
   </energy>
  </scstep>
  <scstep>
   <time name="dav">    1.91    1.91</time>
   <time name="total">    2.10    2.10</time>
   <energy>
    <i name="e_fr_energy">   -162.49733132 </i>
    <i name="e_wo_entrp">   -162.49733132 </i>
    <i name="e_0_energy">   -162.49733132 </i>
   </energy>
  </scstep>
  <scstep>
   <time name="dav">    1.76    1.76</time>
   <time name="total">    1.82    1.83</time>
   <energy>
    <i name="alphaZ">    897.41388675 </i>
    <i name="ewald"> -11583.18306702 </i>
    <i name="hartreedc">  -3431.21768237 </i>
    <i name="XCdc">    721.10705928 </i>
    <i name="pawpsdc">  18060.56948551 </i>
    <i name="pawaedc"> -17964.17079558 </i>
    <i name="eentropy">      0.00000000 </i>
    <i name="bandstr">  -1709.95433542 </i>
    <i name="atom">  14846.93811678 </i>
    <i name="e_fr_energy">   -162.49733208 </i>
    <i name="e_wo_entrp">   -162.49733208 </i>
    <i name="e_0_energy">   -162.49733208 </i>
   </energy>
  </scstep>
  <structure>
   <crystal>
    <varray name="basis" >
     <v>       0.00000000       0.00000000      -4.00490457 </v>
     <v>       0.00000000       4.00490457       0.00000000 </v>
     <v>      16.01348831       0.00000000       0.00000000 </v>
    </varray>
    <i name="volume">    256.84451190 </i>
    <varray name="rec_basis" >
     <v>       0.00000000       0.00000000      -0.24969384 </v>
     <v>       0.00000000       0.24969384       0.00000000 </v>
     <v>       0.06244736       0.00000000       0.00000000 </v>
    </varray>
   </crystal>
   <varray name="positions" >
    <v>       0.50000000       0.50000000       0.12220426 </v>
    <v>       0.50000000       0.50000000       0.37779574 </v>
    <v>       0.50000000       0.50000000       0.25000000 </v>
    <v>       0.50000000       0.00000000       0.12481733 </v>
    <v>       0.00000000       0.50000000       0.12481733 </v>
    <v>       0.50000000       0.50000000       0.50241976 </v>
    <v>       0.50000000       0.00000000       0.37518267 </v>
    <v>       0.00000000       0.50000000       0.37518267 </v>
    <v>       0.50000000       0.50000000       0.75000000 </v>
    <v>       0.50000000       0.00000000       0.62591131 </v>
    <v>       0.00000000       0.50000000       0.62591131 </v>
    <v>       0.50000000       0.50000000       0.99758024 </v>
    <v>       0.50000000       0.00000000       0.87408869 </v>
    <v>       0.00000000       0.50000000       0.87408869 </v>
    <v>       0.00000000       0.00000000       0.25000000 </v>
    <v>       0.00000000       0.00000000       0.51414587 </v>
    <v>       0.00000000       0.00000000       0.75000000 </v>
    <v>       0.00000000       0.00000000       0.98585413 </v>
    <v>       0.50000000       0.50000000       0.62838533 </v>
    <v>       0.50000000       0.50000000       0.87161467 </v>
   </varray>
  </structure>
  <varray name="forces" >
   <v>       0.00728891       0.00000000       0.00000000 </v>
   <v>      -0.00728891      -0.00000000       0.00000000 </v>
   <v>       0.00000000       0.00000000       0.00000000 </v>
   <v>      -0.00107117       0.00000000       0.00000000 </v>
   <v>      -0.00107117       0.00000000       0.00000000 </v>
   <v>       0.00472724      -0.00000000       0.00000000 </v>
   <v>       0.00107117      -0.00000000       0.00000000 </v>
   <v>       0.00107117       0.00000000      -0.00000000 </v>
   <v>       0.00000000       0.00000000       0.00000000 </v>
   <v>       0.00442435       0.00000000      -0.00000000 </v>
   <v>       0.00442435       0.00000000       0.00000000 </v>
   <v>      -0.00472724      -0.00000000       0.00000000 </v>
   <v>      -0.00442435       0.00000000       0.00000000 </v>
   <v>      -0.00442435      -0.00000000       0.00000000 </v>
   <v>       0.00000000       0.00000000       0.00000000 </v>
   <v>      -0.00489805       0.00000000       0.00000000 </v>
   <v>       0.00000000       0.00000000       0.00000000 </v>
   <v>       0.00489805      -0.00000000       0.00000000 </v>
   <v>       0.00503013       0.00000000       0.00000000 </v>
   <v>      -0.00503013       0.00000000       0.00000000 </v>
  </varray>
  <varray name="stress" >
   <v>       1.85174895       0.00000000       0.00000000 </v>
   <v>       0.00000000       1.64382436       0.00000000 </v>
   <v>       0.00000000       0.00000000       1.64382436 </v>
  </varray>
  <energy>
   <i name="e_fr_energy">   -162.49733208 </i>
   <i name="e_wo_entrp">   -162.49733208 </i>
   <i name="e_0_energy">      0.00000000 </i>
  </energy>
  <time name="totalsc">   18.70   20.34</time>
  <eigenvalues>
   <array>
    <dimension dim="1">band</dimension>
    <dimension dim="2">kpoint</dimension>
    <dimension dim="3">spin</dimension>
    <field>eigene</field>
    <field>occ</field>
    <set>
     <set comment="spin 1">
      <set comment="kpoint 1">
       <r>  -51.7159    1.0000 </r>
       <r>  -51.7151    1.0000 </r>
       <r>  -49.9483    1.0000 </r>
       <r>  -49.9473    1.0000 </r>
       <r>  -29.3330    1.0000 </r>
       <r>  -28.8663    1.0000 </r>
       <r>  -28.8660    1.0000 </r>
       <r>  -28.6369    1.0000 </r>
       <r>  -28.0087    1.0000 </r>
       <r>  -27.9777    1.0000 </r>
       <r>  -27.9559    1.0000 </r>
       <r>  -27.9559    1.0000 </r>
       <r>  -27.9544    1.0000 </r>
       <r>  -27.9544    1.0000 </r>
       <r>  -26.1859    1.0000 </r>
       <r>  -26.1265    1.0000 </r>
       <r>  -26.1113    1.0000 </r>
       <r>  -26.1113    1.0000 </r>
       <r>  -26.1091    1.0000 </r>
       <r>  -26.1091    1.0000 </r>
       <r>  -13.6550    1.0000 </r>
       <r>  -13.4937    1.0000 </r>
       <r>  -12.9967    1.0000 </r>
       <r>  -12.9953    1.0000 </r>
       <r>  -12.9816    1.0000 </r>
       <r>  -12.9545    1.0000 </r>
       <r>  -12.6430    1.0000 </r>
       <r>  -12.1956    1.0000 </r>
       <r>  -12.0351    1.0000 </r>
       <r>  -11.8384    1.0000 </r>
       <r>  -11.8213    1.0000 </r>
       <r>  -11.7806    1.0000 </r>
       <r>  -11.2988    1.0000 </r>
       <r>  -11.2988    1.0000 </r>
       <r>  -11.0847    1.0000 </r>
       <r>  -10.8320    1.0000 </r>
       <r>  -10.8320    1.0000 </r>
       <r>  -10.8303    1.0000 </r>
       <r>  -10.8303    1.0000 </r>
       <r>  -10.6789    1.0000 </r>
       <r>  -10.5872    1.0000 </r>
       <r>  -10.5872    1.0000 </r>
       <r>  -10.5030    1.0000 </r>
       <r>  -10.1859    1.0000 </r>
       <r>   -0.4524    1.0000 </r>
       <r>    0.7194    1.0000 </r>
       <r>    0.8259    1.0000 </r>
       <r>    1.2522    1.0000 </r>
       <r>    1.2522    1.0000 </r>
       <r>    1.3978    1.0000 </r>
       <r>    1.4104    1.0000 </r>
       <r>    1.4104    1.0000 </r>
       <r>    1.5201    1.0000 </r>
       <r>    1.5768    1.0000 </r>
       <r>    1.5768    1.0000 </r>
       <r>    1.5805    1.0000 </r>
       <r>    1.5805    1.0000 </r>
       <r>    1.7274    1.0000 </r>
       <r>    1.7274    1.0000 </r>
       <r>    1.9167    1.0000 </r>
       <r>    2.2406    1.0000 </r>
       <r>    2.2410    1.0000 </r>
       <r>    2.2410    1.0000 </r>
       <r>    2.2678    1.0000 </r>
       <r>    2.3235    1.0000 </r>
       <r>    2.3235    1.0000 </r>
       <r>    2.5181    1.0000 </r>
       <r>    2.6941    1.0000 </r>
       <r>    2.8870    1.0000 </r>
       <r>    2.8870    1.0000 </r>
       <r>    2.8920    1.0000 </r>
       <r>    2.8920    1.0000 </r>
       <r>    3.0654    1.0000 </r>
       <r>    3.0889    1.0000 </r>
       <r>    3.0889    1.0000 </r>
       <r>    3.6623    1.0000 </r>
       <r>    3.7261    1.0000 </r>
       <r>    3.7261    1.0000 </r>
       <r>    3.8636    1.0000 </r>
       <r>    3.8636    1.0000 </r>
       <r>    5.8906    1.0000 </r>
       <r>    6.0172    1.0000 </r>
       <r>    6.2163    1.0000 </r>
       <r>    6.2163    1.0000 </r>
       <r>    6.5094    1.0787 </r>
       <r>    6.6050    1.1284 </r>
       <r>    7.3248   -0.0777 </r>
       <r>    7.3248   -0.0615 </r>
       <r>    7.3733    0.0000 </r>
       <r>    7.3733    0.0000 </r>
       <r>    8.3443    0.0000 </r>
       <r>    8.3443    0.0000 </r>
       <r>    8.7307    0.0000 </r>
       <r>    8.7365    0.0000 </r>
       <r>    9.0414    0.0000 </r>
       <r>    9.2853    0.0000 </r>
       <r>    9.3462    0.0000 </r>
       <r>    9.4089    0.0000 </r>
       <r>    9.9898    0.0000 </r>
       <r>    9.9919    0.0000 </r>
      </set>
      <set comment="kpoint 2">
       <r>  -51.7157    1.0000 </r>
       <r>  -51.7149    1.0000 </r>
       <r>  -49.9479    1.0000 </r>
       <r>  -49.9469    1.0000 </r>
       <r>  -29.3308    1.0000 </r>
       <r>  -28.8643    1.0000 </r>
       <r>  -28.8639    1.0000 </r>
       <r>  -28.6346    1.0000 </r>
       <r>  -28.0100    1.0000 </r>
       <r>  -27.9780    1.0000 </r>
       <r>  -27.9623    1.0000 </r>
       <r>  -27.9618    1.0000 </r>
       <r>  -27.9556    1.0000 </r>
       <r>  -27.9541    1.0000 </r>
       <r>  -26.1859    1.0000 </r>
       <r>  -26.1350    1.0000 </r>
       <r>  -26.1336    1.0000 </r>
       <r>  -26.1257    1.0000 </r>
       <r>  -26.1105    1.0000 </r>
       <r>  -26.1083    1.0000 </r>
       <r>  -13.5665    1.0000 </r>
       <r>  -13.4510    1.0000 </r>
       <r>  -12.9579    1.0000 </r>
       <r>  -12.9532    1.0000 </r>
       <r>  -12.9295    1.0000 </r>
       <r>  -12.9099    1.0000 </r>
       <r>  -12.6457    1.0000 </r>
       <r>  -12.2314    1.0000 </r>
       <r>  -12.0712    1.0000 </r>
       <r>  -11.8599    1.0000 </r>
       <r>  -11.8466    1.0000 </r>
       <r>  -11.8286    1.0000 </r>
       <r>  -11.2936    1.0000 </r>
       <r>  -11.2199    1.0000 </r>
       <r>  -11.0930    1.0000 </r>
       <r>  -10.8267    1.0000 </r>
       <r>  -10.8250    1.0000 </r>
       <r>  -10.7565    1.0000 </r>
       <r>  -10.7445    1.0000 </r>
       <r>  -10.6775    1.0000 </r>
       <r>  -10.5817    1.0000 </r>
       <r>  -10.5585    1.0000 </r>
       <r>  -10.4693    1.0000 </r>
       <r>  -10.2099    1.0000 </r>
       <r>   -0.4566    1.0000 </r>
       <r>    0.5562    1.0000 </r>
       <r>    0.7360    1.0000 </r>
       <r>    0.7599    1.0000 </r>
       <r>    1.1863    1.0000 </r>
       <r>    1.1882    1.0000 </r>
       <r>    1.2044    1.0000 </r>
       <r>    1.3357    1.0000 </r>
       <r>    1.3512    1.0000 </r>
       <r>    1.4893    1.0000 </r>
       <r>    1.5112    1.0000 </r>
       <r>    1.5420    1.0000 </r>
       <r>    1.5661    1.0000 </r>
       <r>    1.6868    1.0000 </r>
       <r>    1.7127    1.0000 </r>
       <r>    1.7285    1.0000 </r>
       <r>    1.8382    1.0000 </r>
       <r>    2.1719    1.0000 </r>
       <r>    2.1865    1.0000 </r>
       <r>    2.2709    1.0000 </r>
       <r>    2.4252    1.0000 </r>
       <r>    2.4672    1.0000 </r>
       <r>    2.5344    1.0000 </r>
       <r>    2.6608    1.0000 </r>
       <r>    2.6860    1.0000 </r>
       <r>    2.7358    1.0000 </r>
       <r>    2.7461    1.0000 </r>
       <r>    2.8196    1.0000 </r>
       <r>    3.0063    1.0000 </r>
       <r>    3.0553    1.0000 </r>
       <r>    3.1439    1.0000 </r>
       <r>    3.4229    1.0000 </r>
       <r>    3.5222    1.0000 </r>
       <r>    3.5600    1.0000 </r>
       <r>    3.6021    1.0000 </r>
       <r>    3.7373    1.0000 </r>
       <r>    6.2351    1.0000 </r>
       <r>    6.3181    1.0500 </r>
       <r>    6.4270    0.9877 </r>
       <r>    6.5609    0.9079 </r>
       <r>    6.7945    0.6356 </r>
       <r>    6.8764    0.3854 </r>
       <r>    7.3436   -0.0364 </r>
       <r>    7.3905   -0.0370 </r>
       <r>    7.4240    0.0000 </r>
       <r>    7.4542    0.0000 </r>
       <r>    8.3481    0.0000 </r>
       <r>    8.3712    0.0000 </r>
       <r>    8.9112    0.0000 </r>
       <r>    9.0046    0.0000 </r>
       <r>    9.2692    0.0000 </r>
       <r>    9.5243    0.0000 </r>
       <r>    9.5810    0.0000 </r>
       <r>    9.7262    0.0000 </r>
       <r>   10.2707    0.0000 </r>
       <r>   10.2760    0.0000 </r>
      </set>
      <set comment="kpoint 3">
       <r>  -51.7153    1.0000 </r>
       <r>  -51.7145    1.0000 </r>
       <r>  -49.9470    1.0000 </r>
       <r>  -49.9460    1.0000 </r>
       <r>  -29.3257    1.0000 </r>
       <r>  -28.8594    1.0000 </r>
       <r>  -28.8589    1.0000 </r>
       <r>  -28.6293    1.0000 </r>
       <r>  -28.0131    1.0000 </r>
       <r>  -27.9808    1.0000 </r>
       <r>  -27.9776    1.0000 </r>
       <r>  -27.9774    1.0000 </r>
       <r>  -27.9548    1.0000 </r>
       <r>  -27.9534    1.0000 </r>
       <r>  -26.1913    1.0000 </r>
       <r>  -26.1911    1.0000 </r>
       <r>  -26.1857    1.0000 </r>
       <r>  -26.1243    1.0000 </r>
       <r>  -26.1085    1.0000 </r>
       <r>  -26.1064    1.0000 </r>
       <r>  -13.4573    1.0000 </r>
       <r>  -13.3898    1.0000 </r>
       <r>  -12.9533    1.0000 </r>
       <r>  -12.8575    1.0000 </r>
       <r>  -12.7284    1.0000 </r>
       <r>  -12.7054    1.0000 </r>
       <r>  -12.6112    1.0000 </r>
       <r>  -12.2815    1.0000 </r>
       <r>  -12.1166    1.0000 </r>
       <r>  -11.9773    1.0000 </r>
       <r>  -11.8497    1.0000 </r>
       <r>  -11.8396    1.0000 </r>
       <r>  -11.2811    1.0000 </r>
       <r>  -11.1019    1.0000 </r>
       <r>  -11.0620    1.0000 </r>
       <r>  -10.8140    1.0000 </r>
       <r>  -10.8121    1.0000 </r>
       <r>  -10.6894    1.0000 </r>
       <r>  -10.5914    1.0000 </r>
       <r>  -10.5902    1.0000 </r>
       <r>  -10.5684    1.0000 </r>
       <r>  -10.5522    1.0000 </r>
       <r>  -10.3266    1.0000 </r>
       <r>  -10.2598    1.0000 </r>
       <r>   -0.4703    1.0000 </r>
       <r>   -0.1313    1.0000 </r>
       <r>    0.3390    1.0000 </r>
       <r>    0.3507    1.0000 </r>
       <r>    0.4987    1.0000 </r>
       <r>    0.6224    1.0000 </r>
       <r>    1.0177    1.0000 </r>
       <r>    1.0899    1.0000 </r>
       <r>    1.1333    1.0000 </r>
       <r>    1.1360    1.0000 </r>
       <r>    1.1834    1.0000 </r>
       <r>    1.2412    1.0000 </r>
       <r>    1.3785    1.0000 </r>
       <r>    1.4983    1.0000 </r>
       <r>    1.5298    1.0000 </r>
       <r>    1.6280    1.0000 </r>
       <r>    1.8388    1.0000 </r>
       <r>    1.9026    1.0000 </r>
       <r>    1.9905    1.0000 </r>
       <r>    2.0185    1.0000 </r>
       <r>    2.0350    1.0000 </r>
       <r>    2.2169    1.0000 </r>
       <r>    2.4295    1.0000 </r>
       <r>    2.4631    1.0000 </r>
       <r>    2.4989    1.0000 </r>
       <r>    2.5398    1.0000 </r>
       <r>    2.7292    1.0000 </r>
       <r>    2.8502    1.0000 </r>
       <r>    2.9403    1.0000 </r>
       <r>    2.9790    1.0000 </r>
       <r>    3.0298    1.0000 </r>
       <r>    3.2467    1.0000 </r>
       <r>    3.2910    1.0000 </r>
       <r>    3.5388    1.0000 </r>
       <r>    3.5391    1.0000 </r>
       <r>    3.6598    1.0000 </r>
       <r>    6.3062    1.0029 </r>
       <r>    7.2346    0.0179 </r>
       <r>    7.2626    0.0054 </r>
       <r>    7.3249   -0.0374 </r>
       <r>    7.3453   -0.0458 </r>
       <r>    7.4126   -0.0235 </r>
       <r>    7.4721   -0.0000 </r>
       <r>    7.4884    0.0000 </r>
       <r>    7.7886    0.0000 </r>
       <r>    7.7940    0.0000 </r>
       <r>    8.3573    0.0000 </r>
       <r>    8.5416    0.0000 </r>
       <r>    8.9654    0.0000 </r>
       <r>    9.3340    0.0000 </r>
       <r>    9.8846    0.0000 </r>
       <r>   10.0704    0.0000 </r>
       <r>   10.1727    0.0000 </r>
       <r>   10.3749    0.0000 </r>
       <r>   10.5499    0.0000 </r>
       <r>   10.7848    0.0000 </r>
      </set>
      <set comment="kpoint 4">
       <r>  -51.7150    1.0000 </r>
       <r>  -51.7142    1.0000 </r>
       <r>  -49.9460    1.0000 </r>
       <r>  -49.9451    1.0000 </r>
       <r>  -29.3206    1.0000 </r>
       <r>  -28.8547    1.0000 </r>
       <r>  -28.8540    1.0000 </r>
       <r>  -28.6238    1.0000 </r>
       <r>  -28.0163    1.0000 </r>
       <r>  -27.9974    1.0000 </r>
       <r>  -27.9926    1.0000 </r>
       <r>  -27.9789    1.0000 </r>
       <r>  -27.9541    1.0000 </r>
       <r>  -27.9526    1.0000 </r>
       <r>  -26.2476    1.0000 </r>
       <r>  -26.2465    1.0000 </r>
       <r>  -26.1855    1.0000 </r>
       <r>  -26.1228    1.0000 </r>
       <r>  -26.1066    1.0000 </r>
       <r>  -26.1045    1.0000 </r>
       <r>  -13.5330    1.0000 </r>
       <r>  -13.2734    1.0000 </r>
       <r>  -12.9652    1.0000 </r>
       <r>  -12.7756    1.0000 </r>
       <r>  -12.7329    1.0000 </r>
       <r>  -12.4834    1.0000 </r>
       <r>  -12.3097    1.0000 </r>
       <r>  -12.2082    1.0000 </r>
       <r>  -12.1733    1.0000 </r>
       <r>  -11.9576    1.0000 </r>
       <r>  -11.8984    1.0000 </r>
       <r>  -11.8410    1.0000 </r>
       <r>  -11.2685    1.0000 </r>
       <r>  -11.0852    1.0000 </r>
       <r>  -10.9292    1.0000 </r>
       <r>  -10.8012    1.0000 </r>
       <r>  -10.7991    1.0000 </r>
       <r>  -10.6811    1.0000 </r>
       <r>  -10.5717    1.0000 </r>
       <r>  -10.5551    1.0000 </r>
       <r>  -10.4564    1.0000 </r>
       <r>  -10.4539    1.0000 </r>
       <r>  -10.2982    1.0000 </r>
       <r>  -10.1867    1.0000 </r>
       <r>   -0.7121    1.0000 </r>
       <r>   -0.7051    1.0000 </r>
       <r>   -0.4952    1.0000 </r>
       <r>   -0.4204    1.0000 </r>
       <r>    0.1715    1.0000 </r>
       <r>    0.4452    1.0000 </r>
       <r>    0.6449    1.0000 </r>
       <r>    0.6662    1.0000 </r>
       <r>    0.9168    1.0000 </r>
       <r>    0.9243    1.0000 </r>
       <r>    0.9539    1.0000 </r>
       <r>    0.9835    1.0000 </r>
       <r>    1.1484    1.0000 </r>
       <r>    1.4742    1.0000 </r>
       <r>    1.4922    1.0000 </r>
       <r>    1.5646    1.0000 </r>
       <r>    1.6238    1.0000 </r>
       <r>    1.7474    1.0000 </r>
       <r>    1.8763    1.0000 </r>
       <r>    1.9025    1.0000 </r>
       <r>    1.9567    1.0000 </r>
       <r>    1.9860    1.0000 </r>
       <r>    2.1063    1.0000 </r>
       <r>    2.2054    1.0000 </r>
       <r>    2.4265    1.0000 </r>
       <r>    2.4509    1.0000 </r>
       <r>    2.5900    1.0000 </r>
       <r>    2.7440    1.0000 </r>
       <r>    2.7902    1.0000 </r>
       <r>    2.9316    1.0000 </r>
       <r>    3.0092    1.0000 </r>
       <r>    3.1994    1.0000 </r>
       <r>    3.3925    1.0000 </r>
       <r>    3.4145    1.0000 </r>
       <r>    3.5000    1.0000 </r>
       <r>    3.9646    1.0000 </r>
       <r>    6.3802    1.0268 </r>
       <r>    7.4138   -0.0624 </r>
       <r>    7.4486    0.0000 </r>
       <r>    7.9693    0.0000 </r>
       <r>    7.9709    0.0000 </r>
       <r>    7.9893    0.0000 </r>
       <r>    8.1159    0.0000 </r>
       <r>    8.1548    0.0000 </r>
       <r>    8.2521    0.0000 </r>
       <r>    8.3669    0.0000 </r>
       <r>    8.3852    0.0000 </r>
       <r>    8.8867    0.0000 </r>
       <r>    8.9792    0.0000 </r>
       <r>    9.4661    0.0000 </r>
       <r>   10.2361    0.0000 </r>
       <r>   10.6402    0.0000 </r>
       <r>   10.6550    0.0000 </r>
       <r>   10.7736    0.0000 </r>
       <r>   10.9146    0.0000 </r>
       <r>   11.2727    0.0000 </r>
      </set>
      <set comment="kpoint 5">
       <r>  -51.7148    1.0000 </r>
       <r>  -51.7140    1.0000 </r>
       <r>  -49.9456    1.0000 </r>
       <r>  -49.9447    1.0000 </r>
       <r>  -29.3185    1.0000 </r>
       <r>  -28.8528    1.0000 </r>
       <r>  -28.8520    1.0000 </r>
       <r>  -28.6216    1.0000 </r>
       <r>  -28.0176    1.0000 </r>
       <r>  -28.0046    1.0000 </r>
       <r>  -27.9988    1.0000 </r>
       <r>  -27.9792    1.0000 </r>
       <r>  -27.9538    1.0000 </r>
       <r>  -27.9523    1.0000 </r>
       <r>  -26.2706    1.0000 </r>
       <r>  -26.2690    1.0000 </r>
       <r>  -26.1854    1.0000 </r>
       <r>  -26.1222    1.0000 </r>
       <r>  -26.1058    1.0000 </r>
       <r>  -26.1037    1.0000 </r>
       <r>  -13.5707    1.0000 </r>
       <r>  -13.2429    1.0000 </r>
       <r>  -12.9787    1.0000 </r>
       <r>  -12.7501    1.0000 </r>
       <r>  -12.7476    1.0000 </r>
       <r>  -12.3912    1.0000 </r>
       <r>  -12.2203    1.0000 </r>
       <r>  -12.1539    1.0000 </r>
       <r>  -12.0679    1.0000 </r>
       <r>  -12.0104    1.0000 </r>
       <r>  -11.8911    1.0000 </r>
       <r>  -11.8496    1.0000 </r>
       <r>  -11.2633    1.0000 </r>
       <r>  -11.0645    1.0000 </r>
       <r>  -10.8790    1.0000 </r>
       <r>  -10.7958    1.0000 </r>
       <r>  -10.7938    1.0000 </r>
       <r>  -10.6742    1.0000 </r>
       <r>  -10.5685    1.0000 </r>
       <r>  -10.5495    1.0000 </r>
       <r>  -10.4106    1.0000 </r>
       <r>  -10.3980    1.0000 </r>
       <r>  -10.3148    1.0000 </r>
       <r>  -10.1323    1.0000 </r>
       <r>   -1.0901    1.0000 </r>
       <r>   -1.0708    1.0000 </r>
       <r>   -0.7031    1.0000 </r>
       <r>   -0.4516    1.0000 </r>
       <r>    0.0639    1.0000 </r>
       <r>    0.3769    1.0000 </r>
       <r>    0.4031    1.0000 </r>
       <r>    0.4190    1.0000 </r>
       <r>    0.8271    1.0000 </r>
       <r>    0.8770    1.0000 </r>
       <r>    0.9267    1.0000 </r>
       <r>    0.9506    1.0000 </r>
       <r>    1.0363    1.0000 </r>
       <r>    1.4446    1.0000 </r>
       <r>    1.4964    1.0000 </r>
       <r>    1.5218    1.0000 </r>
       <r>    1.5254    1.0000 </r>
       <r>    1.7305    1.0000 </r>
       <r>    1.7328    1.0000 </r>
       <r>    1.8659    1.0000 </r>
       <r>    1.9056    1.0000 </r>
       <r>    1.9817    1.0000 </r>
       <r>    2.0453    1.0000 </r>
       <r>    2.0903    1.0000 </r>
       <r>    2.3915    1.0000 </r>
       <r>    2.4535    1.0000 </r>
       <r>    2.5188    1.0000 </r>
       <r>    2.7106    1.0000 </r>
       <r>    2.7451    1.0000 </r>
       <r>    2.9265    1.0000 </r>
       <r>    2.9679    1.0000 </r>
       <r>    3.2256    1.0000 </r>
       <r>    3.3740    1.0000 </r>
       <r>    3.4272    1.0000 </r>
       <r>    3.4654    1.0000 </r>
       <r>    4.0671    1.0000 </r>
       <r>    6.4125    1.0477 </r>
       <r>    7.4350   -0.0481 </r>
       <r>    7.4687    0.0000 </r>
       <r>    8.1907    0.0000 </r>
       <r>    8.1966    0.0000 </r>
       <r>    8.2020    0.0000 </r>
       <r>    8.3703    0.0000 </r>
       <r>    8.4547    0.0000 </r>
       <r>    8.4851    0.0000 </r>
       <r>    8.5015    0.0000 </r>
       <r>    8.7214    0.0000 </r>
       <r>    8.9829    0.0000 </r>
       <r>    9.1056    0.0000 </r>
       <r>    9.4966    0.0000 </r>
       <r>   10.3101    0.0000 </r>
       <r>   10.6395    0.0000 </r>
       <r>   10.9427    0.0000 </r>
       <r>   11.0242    0.0000 </r>
       <r>   11.1324    0.0000 </r>
       <r>   11.5059    0.0000 </r>
      </set>
      <set comment="kpoint 6">
       <r>  -51.7156    1.0000 </r>
       <r>  -51.7147    1.0000 </r>
       <r>  -49.9475    1.0000 </r>
       <r>  -49.9466    1.0000 </r>
       <r>  -29.3287    1.0000 </r>
       <r>  -28.8621    1.0000 </r>
       <r>  -28.8618    1.0000 </r>
       <r>  -28.6323    1.0000 </r>
       <r>  -28.0110    1.0000 </r>
       <r>  -27.9782    1.0000 </r>
       <r>  -27.9637    1.0000 </r>
       <r>  -27.9621    1.0000 </r>
       <r>  -27.9611    1.0000 </r>
       <r>  -27.9609    1.0000 </r>
       <r>  -26.1856    1.0000 </r>
       <r>  -26.1347    1.0000 </r>
       <r>  -26.1339    1.0000 </r>
       <r>  -26.1331    1.0000 </r>
       <r>  -26.1324    1.0000 </r>
       <r>  -26.1248    1.0000 </r>
       <r>  -13.4677    1.0000 </r>
       <r>  -13.3858    1.0000 </r>
       <r>  -12.9414    1.0000 </r>
       <r>  -12.8983    1.0000 </r>
       <r>  -12.8974    1.0000 </r>
       <r>  -12.8605    1.0000 </r>
       <r>  -12.6373    1.0000 </r>
       <r>  -12.2425    1.0000 </r>
       <r>  -12.0800    1.0000 </r>
       <r>  -11.8936    1.0000 </r>
       <r>  -11.8890    1.0000 </r>
       <r>  -11.8434    1.0000 </r>
       <r>  -11.2974    1.0000 </r>
       <r>  -11.1610    1.0000 </r>
       <r>  -11.1049    1.0000 </r>
       <r>  -10.8024    1.0000 </r>
       <r>  -10.7946    1.0000 </r>
       <r>  -10.7312    1.0000 </r>
       <r>  -10.7174    1.0000 </r>
       <r>  -10.6773    1.0000 </r>
       <r>  -10.5674    1.0000 </r>
       <r>  -10.5625    1.0000 </r>
       <r>  -10.4184    1.0000 </r>
       <r>  -10.2321    1.0000 </r>
       <r>   -0.4596    1.0000 </r>
       <r>    0.4103    1.0000 </r>
       <r>    0.6753    1.0000 </r>
       <r>    0.7187    1.0000 </r>
       <r>    0.8174    1.0000 </r>
       <r>    1.0177    1.0000 </r>
       <r>    1.0281    1.0000 </r>
       <r>    1.2561    1.0000 </r>
       <r>    1.2882    1.0000 </r>
       <r>    1.2926    1.0000 </r>
       <r>    1.3777    1.0000 </r>
       <r>    1.3920    1.0000 </r>
       <r>    1.4853    1.0000 </r>
       <r>    1.6102    1.0000 </r>
       <r>    1.6802    1.0000 </r>
       <r>    1.7396    1.0000 </r>
       <r>    1.7792    1.0000 </r>
       <r>    1.8810    1.0000 </r>
       <r>    2.0960    1.0000 </r>
       <r>    2.1497    1.0000 </r>
       <r>    2.3310    1.0000 </r>
       <r>    2.5338    1.0000 </r>
       <r>    2.5471    1.0000 </r>
       <r>    2.5829    1.0000 </r>
       <r>    2.6240    1.0000 </r>
       <r>    2.6444    1.0000 </r>
       <r>    2.6517    1.0000 </r>
       <r>    2.8696    1.0000 </r>
       <r>    2.9446    1.0000 </r>
       <r>    3.0862    1.0000 </r>
       <r>    3.1393    1.0000 </r>
       <r>    3.2550    1.0000 </r>
       <r>    3.3396    1.0000 </r>
       <r>    3.4780    1.0000 </r>
       <r>    3.5191    1.0000 </r>
       <r>    3.6018    1.0000 </r>
       <r>    6.5247    0.9965 </r>
       <r>    6.6228    0.8661 </r>
       <r>    6.6307    0.7112 </r>
       <r>    6.7409    0.5664 </r>
       <r>    6.9996    0.1223 </r>
       <r>    7.0862   -0.0474 </r>
       <r>    7.4473   -0.0233 </r>
       <r>    7.4524   -0.0191 </r>
       <r>    7.4781    0.0000 </r>
       <r>    7.4864    0.0000 </r>
       <r>    8.3794    0.0000 </r>
       <r>    8.3918    0.0000 </r>
       <r>    9.2657    0.0000 </r>
       <r>    9.3457    0.0000 </r>
       <r>    9.3619    0.0000 </r>
       <r>    9.7601    0.0000 </r>
       <r>    9.8013    0.0000 </r>
       <r>   10.0006    0.0000 </r>
       <r>   10.4644    0.0000 </r>
       <r>   10.5106    0.0000 </r>
      </set>
      <set comment="kpoint 7">
       <r>  -51.7152    1.0000 </r>
       <r>  -51.7144    1.0000 </r>
       <r>  -49.9466    1.0000 </r>
       <r>  -49.9456    1.0000 </r>
       <r>  -29.3236    1.0000 </r>
       <r>  -28.8571    1.0000 </r>
       <r>  -28.8566    1.0000 </r>
       <r>  -28.6267    1.0000 </r>
       <r>  -28.0136    1.0000 </r>
       <r>  -27.9805    1.0000 </r>
       <r>  -27.9784    1.0000 </r>
       <r>  -27.9776    1.0000 </r>
       <r>  -27.9619    1.0000 </r>
       <r>  -27.9611    1.0000 </r>
       <r>  -26.1909    1.0000 </r>
       <r>  -26.1903    1.0000 </r>
       <r>  -26.1851    1.0000 </r>
       <r>  -26.1326    1.0000 </r>
       <r>  -26.1308    1.0000 </r>
       <r>  -26.1234    1.0000 </r>
       <r>  -13.3588    1.0000 </r>
       <r>  -13.2662    1.0000 </r>
       <r>  -12.9063    1.0000 </r>
       <r>  -12.8014    1.0000 </r>
       <r>  -12.7215    1.0000 </r>
       <r>  -12.6725    1.0000 </r>
       <r>  -12.5985    1.0000 </r>
       <r>  -12.2517    1.0000 </r>
       <r>  -12.1016    1.0000 </r>
       <r>  -11.9707    1.0000 </r>
       <r>  -11.9028    1.0000 </r>
       <r>  -11.8583    1.0000 </r>
       <r>  -11.2838    1.0000 </r>
       <r>  -11.1241    1.0000 </r>
       <r>  -11.0518    1.0000 </r>
       <r>  -10.8013    1.0000 </r>
       <r>  -10.7853    1.0000 </r>
       <r>  -10.6932    1.0000 </r>
       <r>  -10.6747    1.0000 </r>
       <r>  -10.6144    1.0000 </r>
       <r>  -10.5384    1.0000 </r>
       <r>  -10.5121    1.0000 </r>
       <r>  -10.3109    1.0000 </r>
       <r>  -10.2760    1.0000 </r>
       <r>   -0.4705    1.0000 </r>
       <r>   -0.1215    1.0000 </r>
       <r>    0.3093    1.0000 </r>
       <r>    0.3370    1.0000 </r>
       <r>    0.4542    1.0000 </r>
       <r>    0.5691    1.0000 </r>
       <r>    0.7264    1.0000 </r>
       <r>    0.8660    1.0000 </r>
       <r>    0.9172    1.0000 </r>
       <r>    1.0097    1.0000 </r>
       <r>    1.1051    1.0000 </r>
       <r>    1.2091    1.0000 </r>
       <r>    1.2119    1.0000 </r>
       <r>    1.3403    1.0000 </r>
       <r>    1.4822    1.0000 </r>
       <r>    1.5067    1.0000 </r>
       <r>    1.5580    1.0000 </r>
       <r>    1.7335    1.0000 </r>
       <r>    1.8081    1.0000 </r>
       <r>    1.9433    1.0000 </r>
       <r>    2.1739    1.0000 </r>
       <r>    2.2724    1.0000 </r>
       <r>    2.3349    1.0000 </r>
       <r>    2.4106    1.0000 </r>
       <r>    2.4540    1.0000 </r>
       <r>    2.4655    1.0000 </r>
       <r>    2.5825    1.0000 </r>
       <r>    2.8709    1.0000 </r>
       <r>    2.8917    1.0000 </r>
       <r>    3.0421    1.0000 </r>
       <r>    3.2371    1.0000 </r>
       <r>    3.2405    1.0000 </r>
       <r>    3.3293    1.0000 </r>
       <r>    3.4183    1.0000 </r>
       <r>    3.4414    1.0000 </r>
       <r>    3.6607    1.0000 </r>
       <r>    6.6318    0.9040 </r>
       <r>    7.3418   -0.0573 </r>
       <r>    7.3755   -0.0189 </r>
       <r>    7.4352   -0.0340 </r>
       <r>    7.4700   -0.0239 </r>
       <r>    7.5512   -0.0086 </r>
       <r>    7.5831   -0.0000 </r>
       <r>    7.5884    0.0000 </r>
       <r>    7.8213    0.0000 </r>
       <r>    7.8290    0.0000 </r>
       <r>    8.4168    0.0000 </r>
       <r>    8.5713    0.0000 </r>
       <r>    9.3078    0.0000 </r>
       <r>    9.7836    0.0000 </r>
       <r>   10.0696    0.0000 </r>
       <r>   10.2892    0.0000 </r>
       <r>   10.3652    0.0000 </r>
       <r>   10.6243    0.0000 </r>
       <r>   10.8648    0.0000 </r>
       <r>   10.9142    0.0000 </r>
      </set>
      <set comment="kpoint 8">
       <r>  -51.7148    1.0000 </r>
       <r>  -51.7140    1.0000 </r>
       <r>  -49.9456    1.0000 </r>
       <r>  -49.9447    1.0000 </r>
       <r>  -29.3184    1.0000 </r>
       <r>  -28.8521    1.0000 </r>
       <r>  -28.8514    1.0000 </r>
       <r>  -28.6211    1.0000 </r>
       <r>  -28.0162    1.0000 </r>
       <r>  -27.9976    1.0000 </r>
       <r>  -27.9938    1.0000 </r>
       <r>  -27.9787    1.0000 </r>
       <r>  -27.9619    1.0000 </r>
       <r>  -27.9606    1.0000 </r>
       <r>  -26.2468    1.0000 </r>
       <r>  -26.2462    1.0000 </r>
       <r>  -26.1847    1.0000 </r>
       <r>  -26.1308    1.0000 </r>
       <r>  -26.1288    1.0000 </r>
       <r>  -26.1219    1.0000 </r>
       <r>  -13.4257    1.0000 </r>
       <r>  -13.1366    1.0000 </r>
       <r>  -12.8944    1.0000 </r>
       <r>  -12.7123    1.0000 </r>
       <r>  -12.6856    1.0000 </r>
       <r>  -12.4478    1.0000 </r>
       <r>  -12.3277    1.0000 </r>
       <r>  -12.1717    1.0000 </r>
       <r>  -12.1409    1.0000 </r>
       <r>  -11.9605    1.0000 </r>
       <r>  -11.8968    1.0000 </r>
       <r>  -11.8773    1.0000 </r>
       <r>  -11.2608    1.0000 </r>
       <r>  -11.1226    1.0000 </r>
       <r>  -10.9610    1.0000 </r>
       <r>  -10.8107    1.0000 </r>
       <r>  -10.8042    1.0000 </r>
       <r>  -10.6890    1.0000 </r>
       <r>  -10.6749    1.0000 </r>
       <r>  -10.4972    1.0000 </r>
       <r>  -10.4910    1.0000 </r>
       <r>  -10.4561    1.0000 </r>
       <r>  -10.3131    1.0000 </r>
       <r>  -10.2066    1.0000 </r>
       <r>   -0.7043    1.0000 </r>
       <r>   -0.7040    1.0000 </r>
       <r>   -0.4349    1.0000 </r>
       <r>   -0.4173    1.0000 </r>
       <r>    0.1547    1.0000 </r>
       <r>    0.4074    1.0000 </r>
       <r>    0.5325    1.0000 </r>
       <r>    0.5902    1.0000 </r>
       <r>    0.6681    1.0000 </r>
       <r>    0.6694    1.0000 </r>
       <r>    0.7460    1.0000 </r>
       <r>    0.9235    1.0000 </r>
       <r>    0.9477    1.0000 </r>
       <r>    1.2727    1.0000 </r>
       <r>    1.3624    1.0000 </r>
       <r>    1.4792    1.0000 </r>
       <r>    1.4855    1.0000 </r>
       <r>    1.6222    1.0000 </r>
       <r>    1.7222    1.0000 </r>
       <r>    1.7719    1.0000 </r>
       <r>    1.9335    1.0000 </r>
       <r>    2.0588    1.0000 </r>
       <r>    2.1182    1.0000 </r>
       <r>    2.2958    1.0000 </r>
       <r>    2.3939    1.0000 </r>
       <r>    2.4077    1.0000 </r>
       <r>    2.4142    1.0000 </r>
       <r>    2.8304    1.0000 </r>
       <r>    2.9015    1.0000 </r>
       <r>    3.1303    1.0000 </r>
       <r>    3.1352    1.0000 </r>
       <r>    3.2424    1.0000 </r>
       <r>    3.3050    1.0000 </r>
       <r>    3.3069    1.0000 </r>
       <r>    3.4595    1.0000 </r>
       <r>    3.9657    1.0000 </r>
       <r>    6.6997    0.7692 </r>
       <r>    7.5564   -0.0353 </r>
       <r>    7.5861    0.0000 </r>
       <r>    7.9805    0.0000 </r>
       <r>    8.0108    0.0000 </r>
       <r>    8.0552    0.0000 </r>
       <r>    8.2011    0.0000 </r>
       <r>    8.2765    0.0000 </r>
       <r>    8.2807    0.0000 </r>
       <r>    8.4123    0.0000 </r>
       <r>    8.4472    0.0000 </r>
       <r>    8.9280    0.0000 </r>
       <r>    9.3159    0.0000 </r>
       <r>    9.9224    0.0000 </r>
       <r>   10.5472    0.0000 </r>
       <r>   10.8518    0.0000 </r>
       <r>   10.9285    0.0000 </r>
       <r>   10.9451    0.0000 </r>
       <r>   11.1530    0.0000 </r>
       <r>   11.3985    0.0000 </r>
      </set>
      <set comment="kpoint 9">
       <r>  -51.7146    1.0000 </r>
       <r>  -51.7138    1.0000 </r>
       <r>  -49.9452    1.0000 </r>
       <r>  -49.9443    1.0000 </r>
       <r>  -29.3163    1.0000 </r>
       <r>  -28.8500    1.0000 </r>
       <r>  -28.8493    1.0000 </r>
       <r>  -28.6188    1.0000 </r>
       <r>  -28.0172    1.0000 </r>
       <r>  -28.0049    1.0000 </r>
       <r>  -28.0002    1.0000 </r>
       <r>  -27.9789    1.0000 </r>
       <r>  -27.9619    1.0000 </r>
       <r>  -27.9604    1.0000 </r>
       <r>  -26.2698    1.0000 </r>
       <r>  -26.2688    1.0000 </r>
       <r>  -26.1845    1.0000 </r>
       <r>  -26.1301    1.0000 </r>
       <r>  -26.1280    1.0000 </r>
       <r>  -26.1213    1.0000 </r>
       <r>  -13.4613    1.0000 </r>
       <r>  -13.1055    1.0000 </r>
       <r>  -12.9006    1.0000 </r>
       <r>  -12.6918    1.0000 </r>
       <r>  -12.6765    1.0000 </r>
       <r>  -12.3528    1.0000 </r>
       <r>  -12.1772    1.0000 </r>
       <r>  -12.1742    1.0000 </r>
       <r>  -12.0546    1.0000 </r>
       <r>  -11.9768    1.0000 </r>
       <r>  -11.9083    1.0000 </r>
       <r>  -11.8758    1.0000 </r>
       <r>  -11.2490    1.0000 </r>
       <r>  -11.1112    1.0000 </r>
       <r>  -10.9262    1.0000 </r>
       <r>  -10.8179    1.0000 </r>
       <r>  -10.8138    1.0000 </r>
       <r>  -10.6840    1.0000 </r>
       <r>  -10.6711    1.0000 </r>
       <r>  -10.4663    1.0000 </r>
       <r>  -10.4424    1.0000 </r>
       <r>  -10.4357    1.0000 </r>
       <r>  -10.3364    1.0000 </r>
       <r>  -10.1638    1.0000 </r>
       <r>   -1.0884    1.0000 </r>
       <r>   -1.0726    1.0000 </r>
       <r>   -0.6158    1.0000 </r>
       <r>   -0.4479    1.0000 </r>
       <r>    0.0678    1.0000 </r>
       <r>    0.3275    1.0000 </r>
       <r>    0.3805    1.0000 </r>
       <r>    0.4076    1.0000 </r>
       <r>    0.5021    1.0000 </r>
       <r>    0.5495    1.0000 </r>
       <r>    0.6583    1.0000 </r>
       <r>    0.8787    1.0000 </r>
       <r>    0.9054    1.0000 </r>
       <r>    1.2608    1.0000 </r>
       <r>    1.3406    1.0000 </r>
       <r>    1.4270    1.0000 </r>
       <r>    1.5323    1.0000 </r>
       <r>    1.5508    1.0000 </r>
       <r>    1.6043    1.0000 </r>
       <r>    1.7108    1.0000 </r>
       <r>    1.8279    1.0000 </r>
       <r>    2.0250    1.0000 </r>
       <r>    2.1053    1.0000 </r>
       <r>    2.3128    1.0000 </r>
       <r>    2.3290    1.0000 </r>
       <r>    2.3468    1.0000 </r>
       <r>    2.4011    1.0000 </r>
       <r>    2.8161    1.0000 </r>
       <r>    2.9713    1.0000 </r>
       <r>    3.0322    1.0000 </r>
       <r>    3.0825    1.0000 </r>
       <r>    3.2566    1.0000 </r>
       <r>    3.2894    1.0000 </r>
       <r>    3.2945    1.0000 </r>
       <r>    3.4635    1.0000 </r>
       <r>    4.0703    1.0000 </r>
       <r>    6.7286    0.7224 </r>
       <r>    7.5823   -0.0269 </r>
       <r>    7.6121    0.0000 </r>
       <r>    8.2069    0.0000 </r>
       <r>    8.2247    0.0000 </r>
       <r>    8.2607    0.0000 </r>
       <r>    8.4570    0.0000 </r>
       <r>    8.4761    0.0000 </r>
       <r>    8.5619    0.0000 </r>
       <r>    8.6104    0.0000 </r>
       <r>    8.7424    0.0000 </r>
       <r>    9.1531    0.0000 </r>
       <r>    9.3164    0.0000 </r>
       <r>    9.9415    0.0000 </r>
       <r>   10.6726    0.0000 </r>
       <r>   10.8799    0.0000 </r>
       <r>   11.1068    0.0000 </r>
       <r>   11.1968    0.0000 </r>
       <r>   11.4157    0.0000 </r>
       <r>   11.5134    0.0000 </r>
      </set>
      <set comment="kpoint 10">
       <r>  -51.7148    1.0000 </r>
       <r>  -51.7140    1.0000 </r>
       <r>  -49.9456    1.0000 </r>
       <r>  -49.9447    1.0000 </r>
       <r>  -29.3183    1.0000 </r>
       <r>  -28.8514    1.0000 </r>
       <r>  -28.8509    1.0000 </r>
       <r>  -28.6206    1.0000 </r>
       <r>  -28.0147    1.0000 </r>
       <r>  -27.9823    1.0000 </r>
       <r>  -27.9807    1.0000 </r>
       <r>  -27.9793    1.0000 </r>
       <r>  -27.9777    1.0000 </r>
       <r>  -27.9766    1.0000 </r>
       <r>  -26.1906    1.0000 </r>
       <r>  -26.1891    1.0000 </r>
       <r>  -26.1887    1.0000 </r>
       <r>  -26.1880    1.0000 </r>
       <r>  -26.1836    1.0000 </r>
       <r>  -26.1218    1.0000 </r>
       <r>  -13.2073    1.0000 </r>
       <r>  -12.9889    1.0000 </r>
       <r>  -12.7749    1.0000 </r>
       <r>  -12.6751    1.0000 </r>
       <r>  -12.6695    1.0000 </r>
       <r>  -12.5580    1.0000 </r>
       <r>  -12.5430    1.0000 </r>
       <r>  -12.1736    1.0000 </r>
       <r>  -12.0679    1.0000 </r>
       <r>  -11.9995    1.0000 </r>
       <r>  -11.9353    1.0000 </r>
       <r>  -11.8884    1.0000 </r>
       <r>  -11.2757    1.0000 </r>
       <r>  -11.1690    1.0000 </r>
       <r>  -11.0407    1.0000 </r>
       <r>  -10.8158    1.0000 </r>
       <r>  -10.7424    1.0000 </r>
       <r>  -10.7215    1.0000 </r>
       <r>  -10.7106    1.0000 </r>
       <r>  -10.6783    1.0000 </r>
       <r>  -10.5334    1.0000 </r>
       <r>  -10.4535    1.0000 </r>
       <r>  -10.3102    1.0000 </r>
       <r>  -10.2741    1.0000 </r>
       <r>   -0.4755    1.0000 </r>
       <r>   -0.1890    1.0000 </r>
       <r>    0.1402    1.0000 </r>
       <r>    0.1490    1.0000 </r>
       <r>    0.1879    1.0000 </r>
       <r>    0.2639    1.0000 </r>
       <r>    0.4343    1.0000 </r>
       <r>    0.4496    1.0000 </r>
       <r>    0.5251    1.0000 </r>
       <r>    0.7098    1.0000 </r>
       <r>    0.8309    1.0000 </r>
       <r>    0.8489    1.0000 </r>
       <r>    0.9941    1.0000 </r>
       <r>    1.1223    1.0000 </r>
       <r>    1.2017    1.0000 </r>
       <r>    1.3316    1.0000 </r>
       <r>    1.3427    1.0000 </r>
       <r>    1.3881    1.0000 </r>
       <r>    1.4028    1.0000 </r>
       <r>    1.5517    1.0000 </r>
       <r>    1.6330    1.0000 </r>
       <r>    1.7955    1.0000 </r>
       <r>    2.1236    1.0000 </r>
       <r>    2.3169    1.0000 </r>
       <r>    2.5211    1.0000 </r>
       <r>    2.7034    1.0000 </r>
       <r>    2.8567    1.0000 </r>
       <r>    2.8636    1.0000 </r>
       <r>    2.8660    1.0000 </r>
       <r>    3.1510    1.0000 </r>
       <r>    3.2985    1.0000 </r>
       <r>    3.3080    1.0000 </r>
       <r>    3.5189    1.0000 </r>
       <r>    3.5413    1.0000 </r>
       <r>    3.5586    1.0000 </r>
       <r>    3.7350    1.0000 </r>
       <r>    7.3017   -0.0593 </r>
       <r>    7.4474   -0.0172 </r>
       <r>    7.7616   -0.0127 </r>
       <r>    7.8584   -0.0087 </r>
       <r>    7.8851    0.0000 </r>
       <r>    7.8976    0.0000 </r>
       <r>    7.8994    0.0000 </r>
       <r>    7.9123    0.0000 </r>
       <r>    7.9239    0.0000 </r>
       <r>    8.0385    0.0000 </r>
       <r>    8.6128    0.0000 </r>
       <r>    8.6660    0.0000 </r>
       <r>    9.6484    0.0000 </r>
       <r>   10.6076    0.0000 </r>
       <r>   10.6521    0.0000 </r>
       <r>   10.6775    0.0000 </r>
       <r>   10.9105    0.0000 </r>
       <r>   10.9660    0.0000 </r>
       <r>   10.9927    0.0000 </r>
       <r>   11.1029    0.0000 </r>
      </set>
      <set comment="kpoint 11">
       <r>  -51.7144    1.0000 </r>
       <r>  -51.7136    1.0000 </r>
       <r>  -49.9447    1.0000 </r>
       <r>  -49.9437    1.0000 </r>
       <r>  -29.3131    1.0000 </r>
       <r>  -28.8457    1.0000 </r>
       <r>  -28.8452    1.0000 </r>
       <r>  -28.6146    1.0000 </r>
       <r>  -28.0159    1.0000 </r>
       <r>  -27.9981    1.0000 </r>
       <r>  -27.9968    1.0000 </r>
       <r>  -27.9805    1.0000 </r>
[...]
       <r>  -12.3327    1.0000 </r>
       <r>  -12.1991    1.0000 </r>
       <r>  -12.1991    1.0000 </r>
       <r>  -11.9994    1.0000 </r>
       <r>  -11.9994    1.0000 </r>
       <r>  -11.9752    1.0000 </r>
       <r>  -11.9446    1.0000 </r>
       <r>  -11.9446    1.0000 </r>
       <r>  -11.8289    1.0000 </r>
       <r>  -11.3808    1.0000 </r>
       <r>  -11.1567    1.0000 </r>
       <r>  -11.1567    1.0000 </r>
       <r>  -11.0109    1.0000 </r>
       <r>  -10.9294    1.0000 </r>
       <r>  -10.8952    1.0000 </r>
       <r>  -10.8952    1.0000 </r>
       <r>  -10.6200    1.0000 </r>
       <r>  -10.5737    1.0000 </r>
       <r>  -10.5737    1.0000 </r>
       <r>  -10.2627    1.0000 </r>
       <r>  -10.2627    1.0000 </r>
       <r>   -1.2192    1.0000 </r>
       <r>   -1.2116    1.0000 </r>
       <r>   -0.9184    1.0000 </r>
       <r>   -0.9094    1.0000 </r>
       <r>   -0.9073    1.0000 </r>
       <r>   -0.5586    1.0000 </r>
       <r>   -0.2255    1.0000 </r>
       <r>   -0.0834    1.0000 </r>
       <r>   -0.0834    1.0000 </r>
       <r>    0.0286    1.0000 </r>
       <r>    0.2076    1.0000 </r>
       <r>    0.3142    1.0000 </r>
       <r>    0.3142    1.0000 </r>
       <r>    0.3978    1.0000 </r>
       <r>    0.5956    1.0000 </r>
       <r>    0.6849    1.0000 </r>
       <r>    0.6943    1.0000 </r>
       <r>    0.7870    1.0000 </r>
       <r>    1.1017    1.0000 </r>
       <r>    1.1017    1.0000 </r>
       <r>    1.4963    1.0000 </r>
       <r>    1.4963    1.0000 </r>
       <r>    2.0695    1.0000 </r>
       <r>    2.0847    1.0000 </r>
       <r>    2.6371    1.0000 </r>
       <r>    2.6371    1.0000 </r>
       <r>    2.8959    1.0000 </r>
       <r>    2.8959    1.0000 </r>
       <r>    3.5335    1.0000 </r>
       <r>    3.5741    1.0000 </r>
       <r>    3.6336    1.0000 </r>
       <r>    3.6336    1.0000 </r>
       <r>    4.0421    1.0000 </r>
       <r>    4.0421    1.0000 </r>
       <r>    4.2133    1.0000 </r>
       <r>    4.2554    1.0000 </r>
       <r>    8.2764    0.0000 </r>
       <r>    8.2764    0.0000 </r>
       <r>    8.5433    0.0000 </r>
       <r>    8.5433    0.0000 </r>
       <r>    8.6845    0.0000 </r>
       <r>    8.7824    0.0000 </r>
       <r>    8.9609    0.0000 </r>
       <r>    8.9609    0.0000 </r>
       <r>    9.3236    0.0000 </r>
       <r>    9.3236    0.0000 </r>
       <r>    9.5312    0.0000 </r>
       <r>    9.6926    0.0000 </r>
       <r>   10.1924    0.0000 </r>
       <r>   10.4019    0.0000 </r>
       <r>   10.7546    0.0000 </r>
       <r>   10.7685    0.0000 </r>
       <r>   10.7685    0.0000 </r>
       <r>   10.9388    0.0000 </r>
       <r>   11.1849    0.0000 </r>
       <r>   11.1849    0.0000 </r>
      </set>
     </set>
    </set>
   </array>
  </eigenvalues>
  <separator name="orbital magnetization" >
   <v name="MAGDIPOLOUT">      0.00000000      0.00000000      0.00000000</v>
  </separator>
  <dos>
   <i name="efermi">      6.87650932 </i>
   <total>
    <array>
     <dimension dim="1">gridpoints</dimension>
     <dimension dim="2">spin</dimension>
     <field>energy</field>
     <field>total</field>
     <field>integrated</field>
     <set>
      <set comment="spin 1">
       <r>   -54.8892     0.0000     0.0000 </r>
       <r>   -54.6565     0.0000     0.0000 </r>
       <r>   -54.4238     0.0000     0.0000 </r>
       <r>   -54.1911     0.0000     0.0000 </r>
       <r>   -53.9584     0.0000     0.0000 </r>
       <r>   -53.7256     0.0000     0.0000 </r>
       <r>   -53.4929     0.0000     0.0000 </r>
       <r>   -53.2602     0.0000     0.0000 </r>
       <r>   -53.0275     0.0000     0.0000 </r>
       <r>   -52.7948     0.0000     0.0000 </r>
       <r>   -52.5621     0.0000     0.0000 </r>
       <r>   -52.3294     0.0000     0.0000 </r>
       <r>   -52.0967     0.0000     0.0000 </r>
       <r>   -51.8640     0.0000     0.0000 </r>
       <r>   -51.6312     0.0000     4.0000 </r>
       <r>   -51.3985     0.0000     4.0000 </r>
       <r>   -51.1658     0.0000     4.0000 </r>
       <r>   -50.9331     0.0000     4.0000 </r>
       <r>   -50.7004     0.0000     4.0000 </r>
       <r>   -50.4677     0.0000     4.0000 </r>
       <r>   -50.2350     0.0000     4.0000 </r>
       <r>   -50.0023     0.0000     4.0000 </r>
       <r>   -49.7695     0.0000     8.0000 </r>
       <r>   -49.5368     0.0000     8.0000 </r>
       <r>   -49.3041     0.0000     8.0000 </r>
       <r>   -49.0714     0.0000     8.0000 </r>
       <r>   -48.8387     0.0000     8.0000 </r>
       <r>   -48.6060     0.0000     8.0000 </r>
       <r>   -48.3733     0.0000     8.0000 </r>
       <r>   -48.1406     0.0000     8.0000 </r>
       <r>   -47.9079     0.0000     8.0000 </r>
       <r>   -47.6751     0.0000     8.0000 </r>
       <r>   -47.4424     0.0000     8.0000 </r>
       <r>   -47.2097     0.0000     8.0000 </r>
       <r>   -46.9770     0.0000     8.0000 </r>
       <r>   -46.7443     0.0000     8.0000 </r>
       <r>   -46.5116     0.0000     8.0000 </r>
       <r>   -46.2789     0.0000     8.0000 </r>
       <r>   -46.0462     0.0000     8.0000 </r>
       <r>   -45.8135     0.0000     8.0000 </r>
       <r>   -45.5807     0.0000     8.0000 </r>
       <r>   -45.3480     0.0000     8.0000 </r>
       <r>   -45.1153     0.0000     8.0000 </r>
       <r>   -44.8826     0.0000     8.0000 </r>
       <r>   -44.6499     0.0000     8.0000 </r>
       <r>   -44.4172     0.0000     8.0000 </r>
       <r>   -44.1845     0.0000     8.0000 </r>
       <r>   -43.9518     0.0000     8.0000 </r>
       <r>   -43.7190     0.0000     8.0000 </r>
       <r>   -43.4863     0.0000     8.0000 </r>
       <r>   -43.2536     0.0000     8.0000 </r>
       <r>   -43.0209     0.0000     8.0000 </r>
       <r>   -42.7882     0.0000     8.0000 </r>
       <r>   -42.5555     0.0000     8.0000 </r>
       <r>   -42.3228     0.0000     8.0000 </r>
       <r>   -42.0901     0.0000     8.0000 </r>
       <r>   -41.8574     0.0000     8.0000 </r>
       <r>   -41.6246     0.0000     8.0000 </r>
       <r>   -41.3919     0.0000     8.0000 </r>
       <r>   -41.1592     0.0000     8.0000 </r>
       <r>   -40.9265     0.0000     8.0000 </r>
       <r>   -40.6938     0.0000     8.0000 </r>
       <r>   -40.4611     0.0000     8.0000 </r>
       <r>   -40.2284     0.0000     8.0000 </r>
       <r>   -39.9957     0.0000     8.0000 </r>
       <r>   -39.7629     0.0000     8.0000 </r>
       <r>   -39.5302     0.0000     8.0000 </r>
       <r>   -39.2975     0.0000     8.0000 </r>
       <r>   -39.0648     0.0000     8.0000 </r>
       <r>   -38.8321     0.0000     8.0000 </r>
       <r>   -38.5994     0.0000     8.0000 </r>
       <r>   -38.3667     0.0000     8.0000 </r>
       <r>   -38.1340     0.0000     8.0000 </r>
       <r>   -37.9013     0.0000     8.0000 </r>
       <r>   -37.6685     0.0000     8.0000 </r>
       <r>   -37.4358     0.0000     8.0000 </r>
       <r>   -37.2031     0.0000     8.0000 </r>
       <r>   -36.9704     0.0000     8.0000 </r>
       <r>   -36.7377     0.0000     8.0000 </r>
       <r>   -36.5050     0.0000     8.0000 </r>
       <r>   -36.2723     0.0000     8.0000 </r>
       <r>   -36.0396     0.0000     8.0000 </r>
       <r>   -35.8068     0.0000     8.0000 </r>
       <r>   -35.5741     0.0000     8.0000 </r>
       <r>   -35.3414     0.0000     8.0000 </r>
       <r>   -35.1087     0.0000     8.0000 </r>
       <r>   -34.8760     0.0000     8.0000 </r>
       <r>   -34.6433     0.0000     8.0000 </r>
       <r>   -34.4106     0.0000     8.0000 </r>
       <r>   -34.1779     0.0000     8.0000 </r>
       <r>   -33.9452     0.0000     8.0000 </r>
       <r>   -33.7124     0.0000     8.0000 </r>
       <r>   -33.4797     0.0000     8.0000 </r>
       <r>   -33.2470     0.0000     8.0000 </r>
       <r>   -33.0143     0.0000     8.0000 </r>
       <r>   -32.7816     0.0000     8.0000 </r>
       <r>   -32.5489     0.0000     8.0000 </r>
       <r>   -32.3162     0.0000     8.0000 </r>
       <r>   -32.0835     0.0000     8.0000 </r>
       <r>   -31.8508     0.0000     8.0000 </r>
       <r>   -31.6180     0.0000     8.0000 </r>
       <r>   -31.3853     0.0000     8.0000 </r>
       <r>   -31.1526     0.0000     8.0000 </r>
       <r>   -30.9199     0.0000     8.0000 </r>
       <r>   -30.6872     0.0000     8.0000 </r>
       <r>   -30.4545     0.0000     8.0000 </r>
       <r>   -30.2218     0.0000     8.0000 </r>
       <r>   -29.9891     0.0000     8.0000 </r>
       <r>   -29.7563     0.0000     8.0000 </r>
       <r>   -29.5236     0.0000     8.0000 </r>
       <r>   -29.2909     0.0000    10.0000 </r>
       <r>   -29.0582     0.0000    10.0000 </r>
       <r>   -28.8255     0.0000    14.0000 </r>
       <r>   -28.5928     0.0000    16.0000 </r>
       <r>   -28.3601     0.0000    16.0000 </r>
       <r>   -28.1274     0.0000    16.0000 </r>
       <r>   -27.8947     0.0000    28.0000 </r>
       <r>   -27.6619     0.0000    28.0000 </r>
       <r>   -27.4292     0.0000    28.0000 </r>
       <r>   -27.1965     0.0000    28.0000 </r>
       <r>   -26.9638     0.0000    28.0000 </r>
       <r>   -26.7311     0.0000    28.0000 </r>
       <r>   -26.4984     0.0000    28.0000 </r>
       <r>   -26.2657    81.7971    28.2796 </r>
       <r>   -26.0330     0.0000    40.0000 </r>
       <r>   -25.8002     0.0000    40.0000 </r>
       <r>   -25.5675     0.0000    40.0000 </r>
       <r>   -25.3348     0.0000    40.0000 </r>
       <r>   -25.1021     0.0000    40.0000 </r>
       <r>   -24.8694     0.0000    40.0000 </r>
       <r>   -24.6367     0.0000    40.0000 </r>
       <r>   -24.4040     0.0000    40.0000 </r>
       <r>   -24.1713     0.0000    40.0000 </r>
       <r>   -23.9386     0.0000    40.0000 </r>
       <r>   -23.7058     0.0000    40.0000 </r>
       <r>   -23.4731     0.0000    40.0000 </r>
       <r>   -23.2404     0.0000    40.0000 </r>
       <r>   -23.0077     0.0000    40.0000 </r>
       <r>   -22.7750     0.0000    40.0000 </r>
       <r>   -22.5423     0.0000    40.0000 </r>
       <r>   -22.3096     0.0000    40.0000 </r>
       <r>   -22.0769     0.0000    40.0000 </r>
       <r>   -21.8442     0.0000    40.0000 </r>
       <r>   -21.6114     0.0000    40.0000 </r>
       <r>   -21.3787     0.0000    40.0000 </r>
       <r>   -21.1460     0.0000    40.0000 </r>
       <r>   -20.9133     0.0000    40.0000 </r>
       <r>   -20.6806     0.0000    40.0000 </r>
       <r>   -20.4479     0.0000    40.0000 </r>
       <r>   -20.2152     0.0000    40.0000 </r>
       <r>   -19.9825     0.0000    40.0000 </r>
       <r>   -19.7497     0.0000    40.0000 </r>
       <r>   -19.5170     0.0000    40.0000 </r>
       <r>   -19.2843     0.0000    40.0000 </r>
       <r>   -19.0516     0.0000    40.0000 </r>
       <r>   -18.8189     0.0000    40.0000 </r>
       <r>   -18.5862     0.0000    40.0000 </r>
       <r>   -18.3535     0.0000    40.0000 </r>
       <r>   -18.1208     0.0000    40.0000 </r>
       <r>   -17.8881     0.0000    40.0000 </r>
       <r>   -17.6553     0.0000    40.0000 </r>
       <r>   -17.4226     0.0000    40.0000 </r>
       <r>   -17.1899     0.0000    40.0000 </r>
       <r>   -16.9572     0.0000    40.0000 </r>
       <r>   -16.7245     0.0000    40.0000 </r>
       <r>   -16.4918     0.0000    40.0000 </r>
       <r>   -16.2591     0.0000    40.0000 </r>
       <r>   -16.0264     0.0000    40.0000 </r>
       <r>   -15.7936     0.0000    40.0000 </r>
       <r>   -15.5609     0.0000    40.0000 </r>
       <r>   -15.3282     0.0000    40.0000 </r>
       <r>   -15.0955     0.0000    40.0000 </r>
       <r>   -14.8628     0.0000    40.0000 </r>
       <r>   -14.6301     0.0000    40.0000 </r>
       <r>   -14.3974     0.0000    40.0000 </r>
       <r>   -14.1647     0.0000    40.0000 </r>
       <r>   -13.9320     0.0000    40.0000 </r>
       <r>   -13.6992     0.0000    40.0000 </r>
       <r>   -13.4665     8.3029    40.5176 </r>
       <r>   -13.2338     6.4456    42.0897 </r>
       <r>   -13.0011     3.7534    43.1174 </r>
       <r>   -12.7684    13.7197    46.4990 </r>
       <r>   -12.5357    11.7135    50.1005 </r>
       <r>   -12.3030    11.6182    52.8759 </r>
       <r>   -12.0703    23.7882    56.9284 </r>
       <r>   -11.8375    24.5346    63.6891 </r>
       <r>   -11.6048     0.0000    64.0000 </r>
       <r>   -11.3721     0.2886    64.0013 </r>
       <r>   -11.1394    19.4345    67.2979 </r>
       <r>   -10.9067    10.7177    70.2434 </r>
       <r>   -10.6740    26.4005    77.5577 </r>
       <r>   -10.4413    23.8265    83.2940 </r>
       <r>   -10.2086    13.6739    87.5431 </r>
       <r>    -9.9759     0.0000    88.0000 </r>
       <r>    -9.7431     0.0000    88.0000 </r>
       <r>    -9.5104     0.0000    88.0000 </r>
       <r>    -9.2777     0.0000    88.0000 </r>
       <r>    -9.0450     0.0000    88.0000 </r>
       <r>    -8.8123     0.0000    88.0000 </r>
       <r>    -8.5796     0.0000    88.0000 </r>
       <r>    -8.3469     0.0000    88.0000 </r>
       <r>    -8.1142     0.0000    88.0000 </r>
       <r>    -7.8815     0.0000    88.0000 </r>
       <r>    -7.6487     0.0000    88.0000 </r>
       <r>    -7.4160     0.0000    88.0000 </r>
       <r>    -7.1833     0.0000    88.0000 </r>
       <r>    -6.9506     0.0000    88.0000 </r>
       <r>    -6.7179     0.0000    88.0000 </r>
       <r>    -6.4852     0.0000    88.0000 </r>
       <r>    -6.2525     0.0000    88.0000 </r>
       <r>    -6.0198     0.0000    88.0000 </r>
       <r>    -5.7870     0.0000    88.0000 </r>
       <r>    -5.5543     0.0000    88.0000 </r>
       <r>    -5.3216     0.0000    88.0000 </r>
       <r>    -5.0889     0.0000    88.0000 </r>
       <r>    -4.8562     0.0000    88.0000 </r>
       <r>    -4.6235     0.0000    88.0000 </r>
       <r>    -4.3908     0.0000    88.0000 </r>
       <r>    -4.1581     0.0000    88.0000 </r>
       <r>    -3.9254     0.0000    88.0000 </r>
       <r>    -3.6926     0.0000    88.0000 </r>
       <r>    -3.4599     0.0000    88.0000 </r>
       <r>    -3.2272     0.0000    88.0000 </r>
       <r>    -2.9945     0.0000    88.0000 </r>
       <r>    -2.7618     0.0000    88.0000 </r>
       <r>    -2.5291     0.0000    88.0000 </r>
       <r>    -2.2964     0.0000    88.0000 </r>
       <r>    -2.0637     0.0000    88.0000 </r>
       <r>    -1.8309     0.0000    88.0000 </r>
       <r>    -1.5982     0.0000    88.0000 </r>
       <r>    -1.3655     0.0000    88.0000 </r>
       <r>    -1.1328     1.4791    88.0611 </r>
       <r>    -0.9001     4.5530    88.9992 </r>
       <r>    -0.6674     6.1531    90.2590 </r>
       <r>    -0.4347    18.0882    92.3124 </r>
       <r>    -0.2020     6.4804    94.4843 </r>
       <r>     0.0307     8.7875    96.3577 </r>
       <r>     0.2635    14.0211    98.6348 </r>
       <r>     0.4962    17.6642   102.3685 </r>
       <r>     0.7289    17.5270   106.4958 </r>
       <r>     0.9616    18.6453   110.7189 </r>
       <r>     1.1943    18.7488   115.0967 </r>
       <r>     1.4270    23.3756   119.9426 </r>
       <r>     1.6597    17.5028   125.2174 </r>
       <r>     1.8924    13.4668   128.5454 </r>
       <r>     2.1251    13.0987   131.3240 </r>
       <r>     2.3579    10.3391   134.4182 </r>
       <r>     2.5906    14.7394   138.5548 </r>
       <r>     2.8233    14.6695   142.3042 </r>
       <r>     3.0560    17.1856   146.5549 </r>
       <r>     3.2887    17.0629   150.6162 </r>
       <r>     3.5214    19.5484   155.0844 </r>
       <r>     3.7541     6.0530   157.5928 </r>
       <r>     3.9868     9.3554   158.8842 </r>
       <r>     4.2196     0.2597   159.9953 </r>
       <r>     4.4523     0.0000   160.0000 </r>
       <r>     4.6850     0.0000   160.0000 </r>
       <r>     4.9177     0.0000   160.0000 </r>
       <r>     5.1504     0.0000   160.0000 </r>
       <r>     5.3831     0.0000   160.0000 </r>
       <r>     5.6158     0.0000   160.0000 </r>
       <r>     5.8485     0.0000   160.0000 </r>
       <r>     6.0812     0.2460   160.0189 </r>
       <r>     6.3140     1.0820   160.1419 </r>
       <r>     6.5467     3.4172   160.6574 </r>
       <r>     6.7794     4.0534   161.6035 </r>
       <r>     7.0121     4.7454   162.5924 </r>
       <r>     7.2448     6.1393   163.8562 </r>
       <r>     7.4775     8.4364   165.5222 </r>
       <r>     7.7102     8.6910   167.4423 </r>
       <r>     7.9429    10.9747   169.6772 </r>
       <r>     8.1757    19.2126   173.1918 </r>
       <r>     8.4084    16.0799   177.2807 </r>
       <r>     8.6411     9.5794   180.3719 </r>
       <r>     8.8738     6.1844   182.1042 </r>
       <r>     9.1065     6.7793   183.5863 </r>
       <r>     9.3392     5.1291   184.9743 </r>
       <r>     9.5719     4.4308   185.9926 </r>
       <r>     9.8046     4.8059   187.0517 </r>
       <r>    10.0373     4.9286   188.2319 </r>
       <r>    10.2701     4.7155   189.3276 </r>
       <r>    10.5028     6.2058   190.6127 </r>
       <r>    10.7355     9.5832   192.6037 </r>
       <r>    10.9682    12.9593   195.0630 </r>
       <r>    11.2009     8.2616   197.5751 </r>
       <r>    11.4336     5.8686   199.3685 </r>
       <r>    11.6663     0.4836   199.9850 </r>
       <r>    11.8990     0.0000   200.0000 </r>
       <r>    12.1317     0.0000   200.0000 </r>
       <r>    12.3645     0.0000   200.0000 </r>
       <r>    12.5972     0.0000   200.0000 </r>
       <r>    12.8299     0.0000   200.0000 </r>
       <r>    13.0626     0.0000   200.0000 </r>
       <r>    13.2953     0.0000   200.0000 </r>
       <r>    13.5280     0.0000   200.0000 </r>
       <r>    13.7607     0.0000   200.0000 </r>
       <r>    13.9934     0.0000   200.0000 </r>
       <r>    14.2262     0.0000   200.0000 </r>
       <r>    14.4589     0.0000   200.0000 </r>
       <r>    14.6916     0.0000   200.0000 </r>
       <r>    14.9243     0.0000   200.0000 </r>
      </set>
     </set>
    </array>
   </total>
  </dos>
 </calculation>
 <structure name="finalpos" >
  <crystal>
   <varray name="basis" >
    <v>       0.00000000       0.00000000      -4.00490457 </v>
    <v>       0.00000000       4.00490457       0.00000000 </v>
    <v>      16.01348831       0.00000000       0.00000000 </v>
   </varray>
   <i name="volume">    256.84451190 </i>
   <varray name="rec_basis" >
    <v>       0.00000000       0.00000000      -0.24969384 </v>
    <v>       0.00000000       0.24969384       0.00000000 </v>
    <v>       0.06244736       0.00000000       0.00000000 </v>
   </varray>
  </crystal>
  <varray name="positions" >
   <v>       0.50000000       0.50000000       0.12220426 </v>
   <v>       0.50000000       0.50000000       0.37779574 </v>
   <v>       0.50000000       0.50000000       0.25000000 </v>
   <v>       0.50000000       0.00000000       0.12481733 </v>
   <v>       0.00000000       0.50000000       0.12481733 </v>
   <v>       0.50000000       0.50000000       0.50241976 </v>
   <v>       0.50000000       0.00000000       0.37518267 </v>
   <v>       0.00000000       0.50000000       0.37518267 </v>
   <v>       0.50000000       0.50000000       0.75000000 </v>
   <v>       0.50000000       0.00000000       0.62591131 </v>
   <v>       0.00000000       0.50000000       0.62591131 </v>
   <v>       0.50000000       0.50000000       0.99758024 </v>
   <v>       0.50000000       0.00000000       0.87408869 </v>
   <v>       0.00000000       0.50000000       0.87408869 </v>
   <v>       0.00000000       0.00000000       0.25000000 </v>
   <v>       0.00000000       0.00000000       0.51414587 </v>
   <v>       0.00000000       0.00000000       0.75000000 </v>
   <v>       0.00000000       0.00000000       0.98585413 </v>
   <v>       0.50000000       0.50000000       0.62838533 </v>
   <v>       0.50000000       0.50000000       0.87161467 </v>
  </varray>
 </structure>
</modeling>
