 running on   40 total cores
 distrk:  each k-point on   40 cores,    1 groups
 distr:  one band on   10 cores,    4 groups
 using from now: INCAR     
 vasp.5.4.4.18Apr17-6-g9f103f2a35 (build Oct 23 2017 21:22:35) complex          
  
 POSCAR found :  4 types and      20 ions
 scaLAPACK will be used

 ----------------------------------------------------------------------------- 
|                                                                             |
|  ADVICE TO THIS USER RUNNING 'VASP/VAMP'   (HEAR YOUR MASTER'S VOICE ...):  |
|                                                                             |
|      You have a (more or less) 'large supercell' and for larger cells       |
|      it might be more efficient to use real space projection opertators     |
|      So try LREAL= Auto  in the INCAR   file.                               |
|      Mind:          For very  accurate calculation you might also keep the  |
|      reciprocal projection scheme          (i.e. LREAL=.FALSE.)             |
|                                                                             |
 ----------------------------------------------------------------------------- 

 LDA part: xc-table for Pade appr. of Perdew
 POSCAR, INCAR and KPOINTS ok, starting setup
 FFT: planning ...
 WAVECAR not read
 entering main loop
       N       E                     dE             d eps       ncg     rms          rms(c)
DAV:   1     0.201320859475E+04    0.20132E+04   -0.80881E+04  3456   0.176E+03
DAV:   2     0.178550523306E+03   -0.18347E+04   -0.17424E+04  3608   0.545E+02
DAV:   3    -0.172623198993E+03   -0.35117E+03   -0.34395E+03  4632   0.221E+02
DAV:   4    -0.196798631599E+03   -0.24175E+02   -0.24076E+02  5296   0.617E+01
DAV:   5    -0.198328172887E+03   -0.15295E+01   -0.15264E+01  5960   0.126E+01    0.493E+01
DAV:   6    -0.161090497728E+03    0.37238E+02   -0.22477E+02  5032   0.682E+01    0.303E+01
DAV:   7    -0.161785669330E+03   -0.69517E+00   -0.36425E+01  4912   0.246E+01    0.200E+01
DAV:   8    -0.162107617084E+03   -0.32195E+00   -0.11936E+01  4832   0.147E+01    0.804E+00
DAV:   9    -0.161620595597E+03    0.48702E+00   -0.61496E+00  4888   0.960E+00    0.358E+00
DAV:  10    -0.161467490452E+03    0.15311E+00   -0.10260E+00  5064   0.447E+00    0.135E+00
DAV:  11    -0.161464960266E+03    0.25302E-02   -0.12121E-01  5120   0.139E+00    0.784E-01
DAV:  12    -0.161469783473E+03   -0.48232E-02   -0.18731E-02  5464   0.621E-01    0.231E-01
DAV:  13    -0.161469281214E+03    0.50226E-03   -0.29543E-03  4848   0.270E-01    0.983E-02
DAV:  14    -0.161469344010E+03   -0.62796E-04   -0.71604E-04  5104   0.112E-01    0.328E-02
DAV:  15    -0.161469380766E+03   -0.36756E-04   -0.17419E-04  5080   0.568E-02    0.215E-02
DAV:  16    -0.161469371976E+03    0.87904E-05   -0.20971E-05  2808   0.240E-02
   1 F= -.16146937E+03 E0= -.16146937E+03  d E =-.161469E+03
 curvature:   0.00 expect dE= 0.000E+00 dE for cont linesearch  0.000E+00
 trial: gam= 0.00000 g(F)=  0.134E+00 g(S)=  0.340E+00 ort = 0.000E+00 (trialstep = 0.100E+01)
 search vector abs. value=  0.474E+00
 bond charge predicted
       N       E                     dE             d eps       ncg     rms          rms(c)
DAV:   1    -0.163520483456E+03   -0.20511E+01   -0.93083E+01  4192   0.544E+01    0.127E+01
DAV:   2    -0.162012694433E+03    0.15078E+01   -0.11149E+01  4456   0.167E+01    0.591E+00
DAV:   3    -0.161632767579E+03    0.37993E+00   -0.32366E+00  4872   0.674E+00    0.353E+00
DAV:   4    -0.161517702140E+03    0.11507E+00   -0.10730E+00  5256   0.466E+00    0.215E+00
DAV:   5    -0.161521175793E+03   -0.34737E-02   -0.39701E-01  5608   0.247E+00    0.189E+00
DAV:   6    -0.161516237291E+03    0.49385E-02   -0.76635E-02  5144   0.118E+00    0.136E+00
DAV:   7    -0.161526913537E+03   -0.10676E-01   -0.35853E-02  5952   0.530E-01    0.675E-01
DAV:   8    -0.161529895839E+03   -0.29823E-02   -0.17301E-02  4656   0.452E-01    0.158E-01
DAV:   9    -0.161529629914E+03    0.26593E-03   -0.27964E-03  4904   0.196E-01    0.110E-01
DAV:  10    -0.161529774207E+03   -0.14429E-03   -0.40618E-04  5160   0.844E-02    0.430E-02
DAV:  11    -0.161529779574E+03   -0.53672E-05   -0.63054E-05  4040   0.280E-02
   2 F= -.16152978E+03 E0= -.16152978E+03  d E =-.604076E-01
 trial-energy change:   -0.060408  1 .order   -0.070488   -0.474138    0.333163
 step:   0.5689(harm=  0.5873)  dis= 0.01840  next Energy=  -161.602394 (dE=-0.133E+00)
 bond charge predicted
       N       E                     dE             d eps       ncg     rms          rms(c)
DAV:   1    -0.162019409053E+03   -0.48963E+00   -0.17695E+01  4312   0.235E+01    0.568E+00
DAV:   2    -0.161679691824E+03    0.33972E+00   -0.19110E+00  4464   0.677E+00    0.236E+00
DAV:   3    -0.161607932447E+03    0.71759E-01   -0.54064E-01  4752   0.287E+00    0.115E+00
DAV:   4    -0.161597334809E+03    0.10598E-01   -0.15797E-01  5312   0.177E+00    0.698E-01
DAV:   5    -0.161597830258E+03   -0.49545E-03   -0.35030E-02  5376   0.811E-01    0.554E-01
DAV:   6    -0.161599048495E+03   -0.12182E-02   -0.61821E-03  5136   0.389E-01    0.427E-01
DAV:   7    -0.161601783283E+03   -0.27348E-02   -0.53699E-03  5976   0.200E-01    0.241E-01
DAV:   8    -0.161602761423E+03   -0.97814E-03   -0.19700E-03  5400   0.164E-01    0.336E-02
DAV:   9    -0.161602783733E+03   -0.22310E-04   -0.31997E-04  5144   0.592E-02    0.286E-02
DAV:  10    -0.161602799680E+03   -0.15947E-04   -0.37758E-05  3224   0.251E-02    0.984E-03
DAV:  11    -0.161602800601E+03   -0.92127E-06   -0.52932E-06  2160   0.116E-02
   3 F= -.16160280E+03 E0= -.16160280E+03  d E =-.133429E+00
 curvature:  -0.29 expect dE=-0.170E-01 dE for cont linesearch -0.977E-05
 trial: gam= 0.13084 g(F)=  0.472E-01 g(S)=  0.108E-01 ort =-0.398E-02 (trialstep = 0.914E+00)
 search vector abs. value=  0.651E-01
 bond charge predicted
       N       E                     dE             d eps       ncg     rms          rms(c)
DAV:   1    -0.161580026230E+03    0.22773E-01   -0.70222E+00  4032   0.159E+01    0.100E+00
DAV:   2    -0.161637640749E+03   -0.57615E-01   -0.75012E-01  3776   0.311E+00    0.692E-01
DAV:   3    -0.161640724899E+03   -0.30841E-02   -0.60028E-02  5408   0.103E+00    0.455E-01
DAV:   4    -0.161639562265E+03    0.11626E-02   -0.15125E-02  5048   0.543E-01    0.290E-01
DAV:   5    -0.161639350722E+03    0.21154E-03   -0.40331E-03  5256   0.299E-01    0.116E-01
DAV:   6    -0.161639359806E+03   -0.90840E-05   -0.74757E-04  5208   0.119E-01    0.710E-02
DAV:   7    -0.161639409021E+03   -0.49215E-04   -0.13263E-04  5200   0.493E-02    0.425E-02
DAV:   8    -0.161639427889E+03   -0.18867E-04   -0.34540E-05  3456   0.385E-02    0.172E-02
DAV:   9    -0.161639436176E+03   -0.82868E-05   -0.11172E-05  2312   0.175E-02
   4 F= -.16163944E+03 E0= -.16163944E+03  d E =-.366356E-01
 trial-energy change:   -0.036636  1 .order   -0.036030   -0.052579   -0.019480
 step:   1.3753(harm=  1.4516)  dis= 0.03300  next Energy=  -161.644433 (dE=-0.416E-01)
 bond charge predicted
       N       E                     dE             d eps       ncg     rms          rms(c)
DAV:   1    -0.161630092576E+03    0.93353E-02   -0.17887E+00  4032   0.810E+00    0.507E-01
DAV:   2    -0.161644836966E+03   -0.14744E-01   -0.19098E-01  3792   0.159E+00    0.366E-01
DAV:   3    -0.161645387721E+03   -0.55075E-03   -0.14651E-02  5560   0.557E-01    0.225E-01
DAV:   4    -0.161645216508E+03    0.17121E-03   -0.30976E-03  5136   0.285E-01    0.141E-01
DAV:   5    -0.161645108268E+03    0.10824E-03   -0.80303E-04  5192   0.146E-01    0.532E-02
DAV:   6    -0.161645121635E+03   -0.13367E-04   -0.17652E-04  4656   0.554E-02    0.336E-02
DAV:   7    -0.161645126661E+03   -0.50263E-05   -0.21982E-05  2840   0.233E-02
   5 F= -.16164513E+03 E0= -.16164513E+03  d E =-.423261E-01
 curvature:  -0.81 expect dE=-0.101E-01 dE for cont linesearch -0.145E-03
 ZBRENT: extrapolating
 opt :   1.4636  next Energy=  -161.645278 (dE=-0.425E-01)
 bond charge predicted
       N       E                     dE             d eps       ncg     rms          rms(c)
DAV:   1    -0.161644708249E+03    0.41339E-03   -0.65280E-02  4048   0.157E+00    0.974E-02
DAV:   2    -0.161645248778E+03   -0.54053E-03   -0.69998E-03  3808   0.308E-01    0.694E-02
DAV:   3    -0.161645268478E+03   -0.19700E-04   -0.51776E-04  5400   0.101E-01    0.419E-02
DAV:   4    -0.161645270735E+03   -0.22571E-05   -0.10837E-04  3992   0.602E-02    0.289E-02
DAV:   5    -0.161645263081E+03    0.76536E-05   -0.32059E-05  2920   0.339E-02
   6 F= -.16164526E+03 E0= -.16164526E+03  d E =-.424625E-01
 curvature:  -0.84 expect dE=-0.118E-01 dE for cont linesearch -0.273E-06
 trial: gam= 0.25617 g(F)=  0.138E-01 g(S)=  0.235E-03 ort =-0.145E-03 (trialstep = 0.102E+01)
 search vector abs. value=  0.182E-01
 bond charge predicted
       N       E                     dE             d eps       ncg     rms          rms(c)
DAV:   1    -0.161648648499E+03   -0.33778E-02   -0.31923E+00  3688   0.704E+00    0.681E-01
DAV:   2    -0.161654153928E+03   -0.55054E-02   -0.10430E-01  4080   0.129E+00    0.469E-01
DAV:   3    -0.161653867685E+03    0.28624E-03   -0.14116E-02  5160   0.554E-01    0.270E-01
DAV:   4    -0.161653543390E+03    0.32429E-03   -0.53977E-03  4904   0.353E-01    0.153E-01
DAV:   5    -0.161653343708E+03    0.19968E-03   -0.13784E-03  5288   0.202E-01    0.608E-02
DAV:   6    -0.161653355818E+03   -0.12110E-04   -0.26192E-04  5256   0.692E-02    0.423E-02
DAV:   7    -0.161653361558E+03   -0.57406E-05   -0.33645E-05  3288   0.321E-02
   7 F= -.16165336E+03 E0= -.16165336E+03  d E =-.809848E-02
 trial-energy change:   -0.008098  1 .order   -0.008336   -0.014337   -0.002335
 step:   1.2568(harm=  1.2229)  dis= 0.01533  next Energy=  -161.653625 (dE=-0.836E-02)
 bond charge predicted
       N       E                     dE             d eps       ncg     rms          rms(c)
DAV:   1    -0.161653295501E+03    0.60317E-04   -0.16536E-01  3688   0.160E+00    0.154E-01
DAV:   2    -0.161653584339E+03   -0.28884E-03   -0.54208E-03  4184   0.295E-01    0.107E-01
DAV:   3    -0.161653543395E+03    0.40944E-04   -0.72913E-04  5168   0.126E-01    0.608E-02
DAV:   4    -0.161653535566E+03    0.78292E-05   -0.27226E-04  4560   0.821E-02    0.350E-02
DAV:   5    -0.161653518242E+03    0.17323E-04   -0.65507E-05  3384   0.464E-02    0.146E-02
DAV:   6    -0.161653517342E+03    0.90067E-06   -0.11846E-05  2384   0.202E-02
   8 F= -.16165352E+03 E0= -.16165352E+03  d E =-.825426E-02
 curvature:  -0.77 expect dE=-0.405E-02 dE for cont linesearch -0.106E-04
 trial: gam= 0.39271 g(F)=  0.499E-02 g(S)=  0.245E-03 ort =-0.501E-03 (trialstep = 0.107E+01)
 search vector abs. value=  0.766E-02
 bond charge predicted
       N       E                     dE             d eps       ncg     rms          rms(c)
DAV:   1    -0.161648888662E+03    0.46296E-02   -0.14532E+00  3752   0.639E+00    0.448E-01
DAV:   2    -0.161656802948E+03   -0.79143E-02   -0.10256E-01  4160   0.129E+00    0.423E-01
DAV:   3    -0.161656229463E+03    0.57348E-03   -0.12712E-02  5304   0.531E-01    0.206E-01
DAV:   4    -0.161656069170E+03    0.16029E-03   -0.19302E-03  5136   0.212E-01    0.110E-01
DAV:   5    -0.161656020714E+03    0.48457E-04   -0.51218E-04  5184   0.114E-01    0.353E-02
DAV:   6    -0.161656029809E+03   -0.90959E-05   -0.94206E-05  4560   0.379E-02
   9 F= -.16165603E+03 E0= -.16165603E+03  d E =-.251247E-02
 trial-energy change:   -0.002512  1 .order   -0.002613   -0.005395    0.000170
 step:   1.0339(harm=  1.0377)  dis= 0.00693  next Energy=  -161.656033 (dE=-0.252E-02)
 bond charge predicted
       N       E                     dE             d eps       ncg     rms          rms(c)
DAV:   1    -0.161656029493E+03   -0.87796E-05   -0.17109E-03  3792   0.218E-01    0.190E-02
DAV:   2    -0.161656033839E+03   -0.43461E-05   -0.12397E-04  4104   0.501E-02    0.163E-02
DAV:   3    -0.161656035793E+03   -0.19534E-05   -0.15858E-05  2584   0.234E-02
  10 F= -.16165604E+03 E0= -.16165604E+03  d E =-.251845E-02
 curvature:  -0.78 expect dE=-0.215E-03 dE for cont linesearch -0.518E-06
 ZBRENT: interpolating
 opt :   1.0195  next Energy=  -161.656036 (dE=-0.252E-02)
 bond charge predicted
       N       E                     dE             d eps       ncg     rms          rms(c)
DAV:   1    -0.161656033490E+03    0.34904E-06   -0.25449E-04  3816   0.851E-02    0.780E-03
DAV:   2    -0.161656034214E+03   -0.72407E-06   -0.17139E-05  2648   0.174E-02
  11 F= -.16165603E+03 E0= -.16165603E+03  d E =-.251687E-02
 curvature:  -0.77 expect dE=-0.203E-03 dE for cont linesearch -0.160E-08
 trial: gam=-0.00683 g(F)=  0.210E-03 g(S)=  0.523E-04 ort = 0.398E-05 (trialstep = 0.106E+01)
 search vector abs. value=  0.262E-03
 bond charge predicted
       N       E                     dE             d eps       ncg     rms          rms(c)
DAV:   1    -0.161655923666E+03    0.10982E-03   -0.65838E-02  3824   0.123E+00    0.907E-02
DAV:   2    -0.161656151024E+03   -0.22736E-03   -0.33935E-03  3872   0.240E-01    0.679E-02
DAV:   3    -0.161656183540E+03   -0.32516E-04   -0.41578E-04  5344   0.100E-01    0.417E-02
DAV:   4    -0.161656169939E+03    0.13601E-04   -0.15677E-04  4232   0.662E-02    0.189E-02
DAV:   5    -0.161656175168E+03   -0.52297E-05   -0.26293E-05  2808   0.297E-02
  12 F= -.16165618E+03 E0= -.16165618E+03  d E =-.140954E-03
 trial-energy change:   -0.000141  1 .order   -0.000121   -0.000278    0.000037
 step:   0.9363(harm=  0.9363)  dis= 0.00181  next Energy=  -161.656157 (dE=-0.123E-03)
 bond charge predicted
       N       E                     dE             d eps       ncg     rms          rms(c)
DAV:   1    -0.161656188925E+03   -0.18987E-04   -0.91552E-04  3872   0.145E-01    0.114E-02
DAV:   2    -0.161656186050E+03    0.28752E-05   -0.48709E-05  3384   0.294E-02
  13 F= -.16165619E+03 E0= -.16165619E+03  d E =-.151836E-03
 curvature:  -0.47 expect dE=-0.106E-04 dE for cont linesearch -0.136E-05
 trial: gam= 0.00000 g(F)=  0.168E-04 g(S)=  0.580E-05 ort =-0.275E-04 (trialstep = 0.104E+01)
 search vector abs. value=  0.226E-04
 reached required accuracy - stopping structural energy minimisation
 writing wavefunctions
