  15  15   0   0
  0.1299836E+02  0.5683207E-09  0.5683207E-09  0.6970473E-09  0.5000000E-15
  1.000000000000000E-004
  CAR 
 unknown system                          
     14.89820862    -54.32738143  301      7.19797327      1.00000000
    -54.327  0.0000E+00  0.0000E+00
    -54.097  0.0000E+00  0.0000E+00
    -53.866  0.0000E+00  0.0000E+00
    -53.635  0.0000E+00  0.0000E+00
    -53.404  0.0000E+00  0.0000E+00
    -53.174  0.0000E+00  0.0000E+00
    -52.943  0.0000E+00  0.0000E+00
    -52.712  0.0000E+00  0.0000E+00
    -52.481  0.0000E+00  0.0000E+00
    -52.251  0.0000E+00  0.0000E+00
    -52.020  0.0000E+00  0.0000E+00
    -51.789  0.0000E+00  0.0000E+00
    -51.558  0.0000E+00  0.0000E+00
    -51.328  0.0000E+00  0.0000E+00
    -51.097  0.0000E+00  0.2000E+01
    -50.866  0.0000E+00  0.2000E+01
    -50.635  0.0000E+00  0.2000E+01
    -50.405  0.0000E+00  0.2000E+01
    -50.174  0.0000E+00  0.2000E+01
    -49.943  0.0000E+00  0.2000E+01
    -49.712  0.0000E+00  0.2000E+01
    -49.482  0.0000E+00  0.6000E+01
    -49.251  0.0000E+00  0.6000E+01
    -49.020  0.0000E+00  0.6000E+01
    -48.789  0.0000E+00  0.6000E+01
    -48.559  0.0000E+00  0.6000E+01
    -48.328  0.0000E+00  0.6000E+01
    -48.097  0.0000E+00  0.6000E+01
    -47.866  0.0000E+00  0.6000E+01
    -47.636  0.0000E+00  0.6000E+01
    -47.405  0.0000E+00  0.6000E+01
    -47.174  0.0000E+00  0.6000E+01
    -46.943  0.0000E+00  0.6000E+01
    -46.713  0.0000E+00  0.6000E+01
    -46.482  0.0000E+00  0.6000E+01
    -46.251  0.0000E+00  0.6000E+01
    -46.020  0.0000E+00  0.6000E+01
    -45.790  0.0000E+00  0.6000E+01
    -45.559  0.0000E+00  0.6000E+01
    -45.328  0.0000E+00  0.6000E+01
    -45.097  0.0000E+00  0.6000E+01
    -44.867  0.0000E+00  0.6000E+01
    -44.636  0.0000E+00  0.6000E+01
    -44.405  0.0000E+00  0.6000E+01
    -44.174  0.0000E+00  0.6000E+01
    -43.944  0.0000E+00  0.6000E+01
    -43.713  0.0000E+00  0.6000E+01
    -43.482  0.0000E+00  0.6000E+01
    -43.251  0.0000E+00  0.6000E+01
    -43.021  0.0000E+00  0.6000E+01
    -42.790  0.0000E+00  0.6000E+01
    -42.559  0.0000E+00  0.6000E+01
    -42.328  0.0000E+00  0.6000E+01
    -42.098  0.0000E+00  0.6000E+01
    -41.867  0.0000E+00  0.6000E+01
    -41.636  0.0000E+00  0.6000E+01
    -41.405  0.0000E+00  0.6000E+01
    -41.175  0.0000E+00  0.6000E+01
    -40.944  0.0000E+00  0.6000E+01
    -40.713  0.0000E+00  0.6000E+01
    -40.482  0.0000E+00  0.6000E+01
    -40.252  0.0000E+00  0.6000E+01
    -40.021  0.0000E+00  0.6000E+01
    -39.790  0.0000E+00  0.6000E+01
    -39.559  0.0000E+00  0.6000E+01
    -39.329  0.0000E+00  0.6000E+01
    -39.098  0.0000E+00  0.6000E+01
    -38.867  0.0000E+00  0.6000E+01
    -38.636  0.0000E+00  0.6000E+01
    -38.405  0.0000E+00  0.6000E+01
    -38.175  0.0000E+00  0.6000E+01
    -37.944  0.0000E+00  0.6000E+01
    -37.713  0.0000E+00  0.6000E+01
    -37.482  0.0000E+00  0.6000E+01
    -37.252  0.0000E+00  0.6000E+01
    -37.021  0.0000E+00  0.6000E+01
    -36.790  0.0000E+00  0.6000E+01
    -36.559  0.0000E+00  0.6000E+01
    -36.329  0.0000E+00  0.6000E+01
    -36.098  0.0000E+00  0.6000E+01
    -35.867  0.0000E+00  0.6000E+01
    -35.636  0.0000E+00  0.6000E+01
    -35.406  0.0000E+00  0.6000E+01
    -35.175  0.0000E+00  0.6000E+01
    -34.944  0.0000E+00  0.6000E+01
    -34.713  0.0000E+00  0.6000E+01
    -34.483  0.0000E+00  0.6000E+01
    -34.252  0.0000E+00  0.6000E+01
    -34.021  0.0000E+00  0.6000E+01
    -33.790  0.0000E+00  0.6000E+01
    -33.560  0.0000E+00  0.6000E+01
    -33.329  0.0000E+00  0.6000E+01
    -33.098  0.0000E+00  0.6000E+01
    -32.867  0.0000E+00  0.6000E+01
    -32.637  0.0000E+00  0.6000E+01
    -32.406  0.0000E+00  0.6000E+01
    -32.175  0.0000E+00  0.6000E+01
    -31.944  0.0000E+00  0.6000E+01
    -31.714  0.0000E+00  0.6000E+01
    -31.483  0.0000E+00  0.6000E+01
    -31.252  0.0000E+00  0.6000E+01
    -31.021  0.0000E+00  0.6000E+01
    -30.791  0.0000E+00  0.6000E+01
    -30.560  0.0000E+00  0.6000E+01
    -30.329  0.0000E+00  0.6000E+01
    -30.098  0.0000E+00  0.6000E+01
    -29.868  0.0000E+00  0.6000E+01
    -29.637  0.0000E+00  0.6000E+01
    -29.406  0.0000E+00  0.6000E+01
    -29.175  0.0000E+00  0.6000E+01
    -28.945  0.0000E+00  0.8000E+01
    -28.714  0.0000E+00  0.1200E+02
    -28.483  0.0000E+00  0.1200E+02
    -28.252  0.0000E+00  0.1200E+02
    -28.022  0.0000E+00  0.1200E+02
    -27.791  0.0000E+00  0.1200E+02
    -27.560  0.0000E+00  0.1200E+02
    -27.329  0.0000E+00  0.1800E+02
    -27.099  0.0000E+00  0.1800E+02
    -26.868  0.0000E+00  0.1800E+02
    -26.637  0.0000E+00  0.1800E+02
    -26.406  0.0000E+00  0.1800E+02
    -26.176  0.0000E+00  0.1800E+02
    -25.945  0.0000E+00  0.1800E+02
    -25.714  0.0000E+00  0.3000E+02
    -25.483  0.0000E+00  0.3000E+02
    -25.253  0.0000E+00  0.3000E+02
    -25.022  0.0000E+00  0.3000E+02
    -24.791  0.0000E+00  0.3000E+02
    -24.560  0.0000E+00  0.3000E+02
    -24.330  0.0000E+00  0.3000E+02
    -24.099  0.0000E+00  0.3000E+02
    -23.868  0.0000E+00  0.3000E+02
    -23.637  0.0000E+00  0.3000E+02
    -23.407  0.0000E+00  0.3000E+02
    -23.176  0.0000E+00  0.3000E+02
    -22.945  0.0000E+00  0.3000E+02
    -22.714  0.0000E+00  0.3000E+02
    -22.484  0.0000E+00  0.3000E+02
    -22.253  0.0000E+00  0.3000E+02
    -22.022  0.0000E+00  0.3000E+02
    -21.791  0.0000E+00  0.3000E+02
    -21.561  0.0000E+00  0.3000E+02
    -21.330  0.0000E+00  0.3000E+02
    -21.099  0.0000E+00  0.3000E+02
    -20.868  0.0000E+00  0.3000E+02
    -20.638  0.0000E+00  0.3000E+02
    -20.407  0.0000E+00  0.3000E+02
    -20.176  0.0000E+00  0.3000E+02
    -19.945  0.0000E+00  0.3000E+02
    -19.715  0.0000E+00  0.3000E+02
    -19.484  0.0000E+00  0.3000E+02
    -19.253  0.0000E+00  0.3000E+02
    -19.022  0.0000E+00  0.3000E+02
    -18.792  0.0000E+00  0.3000E+02
    -18.561  0.0000E+00  0.3000E+02
    -18.330  0.0000E+00  0.3000E+02
    -18.099  0.0000E+00  0.3000E+02
    -17.869  0.0000E+00  0.3000E+02
    -17.638  0.0000E+00  0.3000E+02
    -17.407  0.0000E+00  0.3000E+02
    -17.176  0.0000E+00  0.3000E+02
    -16.946  0.0000E+00  0.3000E+02
    -16.715  0.0000E+00  0.3000E+02
    -16.484  0.0000E+00  0.3000E+02
    -16.253  0.0000E+00  0.3000E+02
    -16.023  0.0000E+00  0.3000E+02
    -15.792  0.0000E+00  0.3000E+02
    -15.561  0.0000E+00  0.3000E+02
    -15.330  0.0000E+00  0.3000E+02
    -15.100  0.0000E+00  0.3000E+02
    -14.869  0.0000E+00  0.3000E+02
    -14.638  0.0000E+00  0.3000E+02
    -14.407  0.0000E+00  0.3000E+02
    -14.177  0.0000E+00  0.3000E+02
    -13.946  0.0000E+00  0.3000E+02
    -13.715  0.0000E+00  0.3000E+02
    -13.484  0.0000E+00  0.3000E+02
    -13.254  0.4920E+00  0.3001E+02
    -13.023  0.5023E+01  0.3187E+02
    -12.792  0.6897E+01  0.3362E+02
    -12.561  0.5397E+01  0.3505E+02
    -12.331  0.9562E+01  0.3784E+02
    -12.100  0.2674E+02  0.4102E+02
    -11.869  0.1434E+02  0.4698E+02
    -11.638  0.0000E+00  0.4800E+02
    -11.408  0.0000E+00  0.4800E+02
    -11.177  0.0000E+00  0.4800E+02
    -10.946  0.3286E+02  0.5022E+02
    -10.715  0.2716E+02  0.5888E+02
    -10.485  0.1103E+02  0.6584E+02
    -10.254  0.0000E+00  0.6600E+02
    -10.023  0.0000E+00  0.6600E+02
     -9.792  0.0000E+00  0.6600E+02
     -9.561  0.0000E+00  0.6600E+02
     -9.331  0.0000E+00  0.6600E+02
     -9.100  0.0000E+00  0.6600E+02
     -8.869  0.0000E+00  0.6600E+02
     -8.638  0.0000E+00  0.6600E+02
     -8.408  0.0000E+00  0.6600E+02
     -8.177  0.0000E+00  0.6600E+02
     -7.946  0.0000E+00  0.6600E+02
     -7.715  0.0000E+00  0.6600E+02
     -7.485  0.0000E+00  0.6600E+02
     -7.254  0.0000E+00  0.6600E+02
     -7.023  0.0000E+00  0.6600E+02
     -6.792  0.0000E+00  0.6600E+02
     -6.562  0.0000E+00  0.6600E+02
     -6.331  0.0000E+00  0.6600E+02
     -6.100  0.0000E+00  0.6600E+02
     -5.869  0.0000E+00  0.6600E+02
     -5.639  0.0000E+00  0.6600E+02
     -5.408  0.0000E+00  0.6600E+02
     -5.177  0.0000E+00  0.6600E+02
     -4.946  0.0000E+00  0.6600E+02
     -4.716  0.0000E+00  0.6600E+02
     -4.485  0.0000E+00  0.6600E+02
     -4.254  0.0000E+00  0.6600E+02
     -4.023  0.0000E+00  0.6600E+02
     -3.793  0.0000E+00  0.6600E+02
     -3.562  0.0000E+00  0.6600E+02
     -3.331  0.0000E+00  0.6600E+02
     -3.100  0.0000E+00  0.6600E+02
     -2.870  0.0000E+00  0.6600E+02
     -2.639  0.0000E+00  0.6600E+02
     -2.408  0.0000E+00  0.6600E+02
     -2.177  0.0000E+00  0.6600E+02
     -1.947  0.0000E+00  0.6600E+02
     -1.716  0.0000E+00  0.6600E+02
     -1.485  0.0000E+00  0.6600E+02
     -1.254  0.0000E+00  0.6600E+02
     -1.024  0.0000E+00  0.6600E+02
     -0.793  0.0000E+00  0.6600E+02
     -0.562  0.2710E-01  0.6600E+02
     -0.331  0.1012E+02  0.6747E+02
     -0.101  0.1356E+02  0.7093E+02
      0.130  0.8844E+01  0.7349E+02
      0.361  0.9575E+01  0.7540E+02
      0.592  0.1136E+02  0.7723E+02
      0.822  0.1383E+02  0.8027E+02
      1.053  0.1682E+02  0.8378E+02
      1.284  0.1726E+02  0.8699E+02
      1.515  0.1465E+02  0.9022E+02
      1.745  0.8681E+01  0.9460E+02
      1.976  0.7657E+01  0.9651E+02
      2.207  0.6010E+01  0.9777E+02
      2.438  0.9233E+01  0.1006E+03
      2.668  0.1167E+02  0.1027E+03
      2.899  0.1969E+02  0.1064E+03
      3.130  0.1673E+02  0.1109E+03
      3.361  0.1460E+02  0.1149E+03
      3.591  0.7056E+01  0.1173E+03
      3.822  0.9754E+01  0.1190E+03
      4.053  0.0000E+00  0.1200E+03
      4.284  0.0000E+00  0.1200E+03
      4.514  0.0000E+00  0.1200E+03
      4.745  0.0000E+00  0.1200E+03
      4.976  0.0000E+00  0.1200E+03
      5.207  0.0000E+00  0.1200E+03
      5.437  0.0000E+00  0.1200E+03
      5.668  0.0000E+00  0.1200E+03
      5.899  0.0000E+00  0.1200E+03
      6.130  0.0000E+00  0.1200E+03
      6.360  0.0000E+00  0.1200E+03
      6.591  0.1216E+01  0.1201E+03
      6.822  0.3330E+01  0.1206E+03
      7.053  0.3613E+01  0.1215E+03
      7.283  0.3621E+01  0.1223E+03
      7.514  0.3658E+01  0.1231E+03
      7.745  0.4917E+01  0.1242E+03
      7.976  0.6631E+01  0.1255E+03
      8.206  0.8100E+01  0.1272E+03
      8.437  0.1178E+02  0.1291E+03
      8.668  0.1716E+02  0.1319E+03
      8.899  0.7771E+01  0.1344E+03
      9.129  0.6883E+01  0.1362E+03
      9.360  0.3705E+01  0.1376E+03
      9.591  0.6784E+00  0.1380E+03
      9.822  0.3451E+01  0.1385E+03
     10.052  0.7318E+01  0.1398E+03
     10.283  0.6041E+01  0.1414E+03
     10.514  0.7672E+01  0.1432E+03
     10.745  0.4833E+01  0.1444E+03
     10.975  0.8636E+01  0.1459E+03
     11.206  0.9352E+01  0.1480E+03
     11.437  0.1111E+02  0.1504E+03
     11.668  0.8465E+00  0.1520E+03
     11.898  0.0000E+00  0.1520E+03
     12.129  0.0000E+00  0.1520E+03
     12.360  0.0000E+00  0.1520E+03
     12.591  0.0000E+00  0.1520E+03
     12.821  0.0000E+00  0.1520E+03
     13.052  0.0000E+00  0.1520E+03
     13.283  0.0000E+00  0.1520E+03
     13.514  0.0000E+00  0.1520E+03
     13.744  0.0000E+00  0.1520E+03
     13.975  0.0000E+00  0.1520E+03
     14.206  0.0000E+00  0.1520E+03
     14.437  0.0000E+00  0.1520E+03
     14.667  0.0000E+00  0.1520E+03
     14.898  0.0000E+00  0.1520E+03
