<?xml version="1.0" encoding="ISO-8859-1"?>
<modeling>
 <generator>
  <i name="program" type="string">vasp </i>
  <i name="version" type="string">5.4.4.18Apr17-6-g9f103f2a35  </i>
  <i name="subversion" type="string">(build Oct 23 2017 21:22:35) complex            parallel </i>
  <i name="platform" type="string">LinuxIFC </i>
  <i name="date" type="string">2017 12 27 </i>
  <i name="time" type="string">07:57:26 </i>
 </generator>
 <incar>
  <i type="string" name="PREC">accurate</i>
  <i type="int" name="IBRION">    -1</i>
  <i name="EDIFF">      0.00001000</i>
  <i name="EDIFFG">     -0.01000000</i>
  <i type="int" name="ISIF">     2</i>
  <i name="ENCUT">    500.00000000</i>
  <i type="int" name="ISMEAR">    -5</i>
  <v type="int" name="KPOINT_BSE">    -1     0     0     0</v>
 </incar>
 <structure name="primitive_cell" >
  <crystal>
   <varray name="basis" >
    <v>      -4.01863406      -4.01863406       0.00000000 </v>
    <v>       4.01863406       0.00000000      -4.01863406 </v>
    <v>       4.02440453      -4.02440453       4.02440453 </v>
   </varray>
   <i name="volume">    194.97539390 </i>
   <varray name="rec_basis" >
    <v>      -0.08294692      -0.16589385      -0.08294692 </v>
    <v>       0.08294692      -0.08294692      -0.16589385 </v>
    <v>       0.08282799      -0.08282799       0.08282799 </v>
   </varray>
  </crystal>
  <varray name="positions" >
   <v>       0.00000000       0.00000000       0.49518917 </v>
   <v>       0.16752007      -0.16752007       0.33158445 </v>
   <v>      -0.33504015      -0.16752007       0.33158445 </v>
   <v>       0.16752007       0.33504015       0.33158445 </v>
   <v>      -0.16666667       0.16666667      -0.33333333 </v>
   <v>      -0.16666667      -0.33333333      -0.33333333 </v>
   <v>       0.33333333       0.16666667      -0.33333333 </v>
   <v>       0.00000000       0.00000000       0.00501523 </v>
   <v>      -0.33333333       0.33333333       0.32831810 </v>
   <v>       0.33333333      -0.33333333      -0.33333333 </v>
   <v>       0.33333333      -0.33333333       0.16666667 </v>
   <v>      -0.33333333       0.33333333      -0.16185584 </v>
   <v>       0.49914659      -0.49914659       0.00174888 </v>
   <v>       0.49914659      -0.00170682       0.00174888 </v>
   <v>       0.00170682      -0.49914659       0.00174888 </v>
  </varray>
 </structure>
 <varray name="primitive_index" >
  <v type="int" >        1 </v>
  <v type="int" >        9 </v>
  <v type="int" >        4 </v>
  <v type="int" >       11 </v>
  <v type="int" >        3 </v>
  <v type="int" >        5 </v>
  <v type="int" >        7 </v>
  <v type="int" >       13 </v>
  <v type="int" >       14 </v>
  <v type="int" >       12 </v>
  <v type="int" >       15 </v>
  <v type="int" >        2 </v>
  <v type="int" >        6 </v>
  <v type="int" >        8 </v>
  <v type="int" >       10 </v>
 </varray>
 <kpoints>
  <generation param="Gamma">
   <v type="int" name="divisions">       6        6        4 </v>
   <v name="usershift">      0.00000000       0.00000000       0.00000000 </v>
   <v name="genvec1">      0.16666667      -0.00000000       0.00000000 </v>
   <v name="genvec2">     -0.00000000       0.16666667       0.00000000 </v>
   <v name="genvec3">      0.00000000       0.00000000       0.25000000 </v>
   <v name="shift">      0.00000000       0.00000000       0.00000000 </v>
  </generation>
  <varray name="kpointlist" >
   <v>       0.00000000       0.00000000       0.00000000 </v>
   <v>       0.16666667       0.00000000      -0.00000000 </v>
   <v>       0.33333333       0.00000000      -0.00000000 </v>
   <v>       0.50000000       0.00000000      -0.00000000 </v>
   <v>       0.16666667       0.16666667       0.00000000 </v>
   <v>       0.33333333       0.16666667      -0.00000000 </v>
   <v>       0.33333333       0.33333333       0.00000000 </v>
   <v>       0.00000000      -0.00000000       0.25000000 </v>
   <v>       0.16666667      -0.00000000       0.25000000 </v>
   <v>       0.33333333       0.00000000       0.25000000 </v>
   <v>       0.50000000       0.00000000       0.25000000 </v>
   <v>      -0.33333333      -0.00000000       0.25000000 </v>
   <v>      -0.16666667       0.00000000       0.25000000 </v>
   <v>       0.16666667       0.16666667       0.25000000 </v>
   <v>       0.33333333       0.16666667       0.25000000 </v>
   <v>       0.50000000       0.16666667       0.25000000 </v>
   <v>       0.33333333       0.33333333       0.25000000 </v>
   <v>       0.00000000      -0.00000000       0.50000000 </v>
   <v>       0.16666667       0.00000000       0.50000000 </v>
   <v>       0.33333333      -0.00000000       0.50000000 </v>
   <v>       0.50000000       0.00000000       0.50000000 </v>
   <v>       0.16666667       0.16666667       0.50000000 </v>
   <v>       0.33333333       0.16666667       0.50000000 </v>
   <v>       0.33333333       0.33333333       0.50000000 </v>
  </varray>
  <varray name="weights" >
   <v>       0.00694444 </v>
   <v>       0.04166667 </v>
   <v>       0.04166667 </v>
   <v>       0.02083333 </v>
   <v>       0.04166667 </v>
   <v>       0.08333333 </v>
   <v>       0.01388889 </v>
   <v>       0.01388889 </v>
   <v>       0.04166667 </v>
   <v>       0.04166667 </v>
   <v>       0.04166667 </v>
   <v>       0.04166667 </v>
   <v>       0.04166667 </v>
   <v>       0.08333333 </v>
   <v>       0.08333333 </v>
   <v>       0.08333333 </v>
   <v>       0.02777778 </v>
   <v>       0.00694444 </v>
   <v>       0.04166667 </v>
   <v>       0.04166667 </v>
   <v>       0.02083333 </v>
   <v>       0.04166667 </v>
   <v>       0.08333333 </v>
   <v>       0.01388889 </v>
  </varray>
  <varray name="tetrahedronlist"  type="int" >
   <v type="int" >        4        1        2        2        9 </v>
   <v type="int" >        4        2        2        5        9 </v>
   <v type="int" >        4        2        5        9       14 </v>
   <v type="int" >        4        1        2        8        9 </v>
   <v type="int" >        8        2        8        9       13 </v>
   <v type="int" >        8        2        9       13       14 </v>
   <v type="int" >        4        2        3        5       10 </v>
   <v type="int" >        4        3        5        6       10 </v>
   <v type="int" >        4        5        6       10       15 </v>
   <v type="int" >        4        2        5        9       10 </v>
   <v type="int" >        4        5        9       10       14 </v>
   <v type="int" >        4        5       10       14       15 </v>
   <v type="int" >        8        3        4        6       11 </v>
   <v type="int" >        4        4        6        6       11 </v>
   <v type="int" >        4        6        6       11       16 </v>
   <v type="int" >        4        3        6       10       11 </v>
   <v type="int" >        4        6       10       11       15 </v>
   <v type="int" >        8        6       11       15       16 </v>
   <v type="int" >        4        3        4        6       12 </v>
   <v type="int" >        4        3        5        6       12 </v>
   <v type="int" >        4        5        6       12       14 </v>
   <v type="int" >        4        4        6       11       12 </v>
   <v type="int" >        4        6       11       12       16 </v>
   <v type="int" >        4        6       12       14       16 </v>
   <v type="int" >        4        2        3        5       13 </v>
   <v type="int" >        4        2        2        5       13 </v>
   <v type="int" >        4        2        5        9       13 </v>
   <v type="int" >        4        3        5       12       13 </v>
   <v type="int" >        4        5       12       13       14 </v>
   <v type="int" >        4        5        9       13       14 </v>
   <v type="int" >        4        1        2        2        8 </v>
   <v type="int" >        4        2        2        8       13 </v>
   <v type="int" >        8        2        3        5       14 </v>
   <v type="int" >        8        3        5        6       14 </v>
   <v type="int" >        4        3        6       14       16 </v>
   <v type="int" >        4        2        3       13       14 </v>
   <v type="int" >        4        3       12       13       14 </v>
   <v type="int" >        4        3       12       14       16 </v>
   <v type="int" >        4        5        6        6       15 </v>
   <v type="int" >        8        6        6        7       15 </v>
   <v type="int" >        8        6        7       15       17 </v>
   <v type="int" >        4        5        6       14       15 </v>
   <v type="int" >        8        6       14       15       16 </v>
   <v type="int" >       16        6       15       16       17 </v>
   <v type="int" >        8        6        6        7       16 </v>
   <v type="int" >        8        6        7       15       16 </v>
   <v type="int" >        8        7       15       16       17 </v>
   <v type="int" >        4        5        6        6       14 </v>
   <v type="int" >        4        3        6       10       14 </v>
   <v type="int" >        4        6        6       14       16 </v>
   <v type="int" >        4        6       10       14       15 </v>
   <v type="int" >        4        2        3        5        9 </v>
   <v type="int" >        4        3        5        9       14 </v>
   <v type="int" >        4        3        9       10       14 </v>
   <v type="int" >        4        3        4        6       16 </v>
   <v type="int" >        4        4        6        6       16 </v>
   <v type="int" >        4        4        6       15       16 </v>
   <v type="int" >        4        3        4       12       16 </v>
   <v type="int" >        4        4       11       12       16 </v>
   <v type="int" >        4        4       11       15       16 </v>
   <v type="int" >        8        6        6        7       17 </v>
   <v type="int" >        8        6        6       16       17 </v>
   <v type="int" >        4        4        6        6       15 </v>
   <v type="int" >        4        4        6       11       15 </v>
   <v type="int" >        4        3        4        6       10 </v>
   <v type="int" >        4        4        6       10       15 </v>
   <v type="int" >        4        4       10       11       15 </v>
   <v type="int" >        4        3        4        6       15 </v>
   <v type="int" >        4        3        5        6       15 </v>
   <v type="int" >        4        3        5       14       15 </v>
   <v type="int" >        4        3        4       11       15 </v>
   <v type="int" >        4        3       10       11       15 </v>
   <v type="int" >        4        3       10       14       15 </v>
   <v type="int" >        4        5        6        6       16 </v>
   <v type="int" >        4        3        5        6       16 </v>
   <v type="int" >        4        3        5       12       16 </v>
   <v type="int" >        4        5        6       15       16 </v>
   <v type="int" >        4        5       14       15       16 </v>
   <v type="int" >        4        5       12       14       16 </v>
   <v type="int" >        4        3        6       11       16 </v>
   <v type="int" >        4        3       11       12       16 </v>
   <v type="int" >        4        2        2        5       14 </v>
   <v type="int" >        4        2        2       13       14 </v>
   <v type="int" >        4        2        3       10       14 </v>
   <v type="int" >        4        2        9       10       14 </v>
   <v type="int" >        4        2        3        5       12 </v>
   <v type="int" >        4        2        5       12       14 </v>
   <v type="int" >        4        2       12       13       14 </v>
   <v type="int" >        4        1        2        2       13 </v>
   <v type="int" >        4        1        2        9       13 </v>
   <v type="int" >        4        1        8        9       13 </v>
   <v type="int" >        8        8        9       13       19 </v>
   <v type="int" >        8        9       13       14       19 </v>
   <v type="int" >        4       13       14       19       22 </v>
   <v type="int" >        4        8       13       18       19 </v>
   <v type="int" >        4       13       18       19       19 </v>
   <v type="int" >        4       13       19       19       22 </v>
   <v type="int" >        4        9       10       14       20 </v>
   <v type="int" >        4       10       14       15       20 </v>
   <v type="int" >        4       14       15       20       23 </v>
   <v type="int" >        4        9       14       19       20 </v>
   <v type="int" >        8       14       19       20       22 </v>
   <v type="int" >        8       14       20       22       23 </v>
   <v type="int" >        4       10       11       15       21 </v>
   <v type="int" >        4       11       15       16       21 </v>
   <v type="int" >        4       15       16       21       23 </v>
   <v type="int" >        4       10       15       20       21 </v>
   <v type="int" >        4       15       20       21       23 </v>
   <v type="int" >        4       15       21       23       23 </v>
   <v type="int" >        4       11       12       16       20 </v>
   <v type="int" >        4       12       14       16       20 </v>
   <v type="int" >        4       14       16       20       22 </v>
   <v type="int" >        4       11       16       20       21 </v>
   <v type="int" >        4       16       20       21       23 </v>
   <v type="int" >        4       16       20       22       23 </v>
   <v type="int" >        4       12       13       14       19 </v>
   <v type="int" >        4        9       14       19       19 </v>
   <v type="int" >        4       12       14       19       20 </v>
   <v type="int" >        4       14       19       19       22 </v>
   <v type="int" >        4        8        9       13       18 </v>
   <v type="int" >        4        9       13       18       19 </v>
   <v type="int" >        4        9       18       19       19 </v>
   <v type="int" >        4       12       13       14       22 </v>
   <v type="int" >        4       12       14       16       22 </v>
   <v type="int" >        4       12       16       22       23 </v>
   <v type="int" >        4       12       13       19       22 </v>
   <v type="int" >        4       12       19       20       22 </v>
   <v type="int" >        4       12       20       22       23 </v>
   <v type="int" >        8       14       15       16       23 </v>
   <v type="int" >       16       15       16       17       23 </v>
   <v type="int" >        8       16       17       23       24 </v>
   <v type="int" >        4       14       16       22       23 </v>
   <v type="int" >        4       16       22       23       23 </v>
   <v type="int" >        8       16       23       23       24 </v>
   <v type="int" >        8       15       17       23       23 </v>
   <v type="int" >        8       17       23       23       24 </v>
   <v type="int" >        4       14       15       16       22 </v>
   <v type="int" >        4       10       14       15       22 </v>
   <v type="int" >        4       10       15       20       22 </v>
   <v type="int" >        4       15       16       22       23 </v>
   <v type="int" >        4       15       22       23       23 </v>
   <v type="int" >        4       15       20       22       23 </v>
   <v type="int" >        4        9       10       14       19 </v>
   <v type="int" >        4       10       14       19       22 </v>
   <v type="int" >        4       10       19       20       22 </v>
   <v type="int" >        4       11       12       16       23 </v>
   <v type="int" >        8       11       15       16       23 </v>
   <v type="int" >        4       11       15       23       23 </v>
   <v type="int" >        4       11       12       20       23 </v>
   <v type="int" >        8       11       20       21       23 </v>
   <v type="int" >        4       11       21       23       23 </v>
   <v type="int" >        8       15       16       17       24 </v>
   <v type="int" >        8       15       16       23       24 </v>
   <v type="int" >        8       15       23       23       24 </v>
   <v type="int" >        4       11       16       21       23 </v>
   <v type="int" >        4       16       21       23       23 </v>
   <v type="int" >        4       10       11       15       20 </v>
   <v type="int" >        4       11       15       20       23 </v>
   <v type="int" >        4       10       11       15       23 </v>
   <v type="int" >        4       10       14       15       23 </v>
   <v type="int" >        4       10       14       22       23 </v>
   <v type="int" >        4       10       11       21       23 </v>
   <v type="int" >        4       10       20       21       23 </v>
   <v type="int" >        4       10       20       22       23 </v>
   <v type="int" >        4       12       14       16       23 </v>
   <v type="int" >        4       12       14       20       23 </v>
   <v type="int" >        4       14       15       23       23 </v>
   <v type="int" >        4       14       22       23       23 </v>
   <v type="int" >        4       11       12       16       21 </v>
   <v type="int" >        4       12       16       21       23 </v>
   <v type="int" >        4       12       20       21       23 </v>
   <v type="int" >        4        9       10       14       22 </v>
   <v type="int" >        4        9       13       14       22 </v>
   <v type="int" >        4        9       13       19       22 </v>
   <v type="int" >        4        9       10       20       22 </v>
   <v type="int" >        4        9       19       20       22 </v>
   <v type="int" >        4        9       19       19       22 </v>
   <v type="int" >        4       12       13       14       20 </v>
   <v type="int" >        4       13       14       20       22 </v>
   <v type="int" >        4       13       19       20       22 </v>
   <v type="int" >        4        8        9       19       19 </v>
   <v type="int" >        4        8       18       19       19 </v>
  </varray>
  <i name="volumeweight">      0.00115741 </i>
 </kpoints>
 <parameters>
  <separator name="general" >
   <i type="string" name="SYSTEM">unknown system</i>
   <i type="logical" name="LCOMPAT"> F  </i>
  </separator>
  <separator name="electronic" >
   <i type="string" name="PREC">accura</i>
   <i name="ENMAX">    500.00000000</i>
   <i name="ENAUG">    605.39200000</i>
   <i name="EDIFF">      0.00001000</i>
   <i type="int" name="IALGO">    38</i>
   <i type="int" name="IWAVPR">    10</i>
   <i type="int" name="NBANDS">    76</i>
   <i name="NELECT">    122.00000000</i>
   <i type="int" name="TURBO">     0</i>
   <i type="int" name="IRESTART">     0</i>
   <i type="int" name="NREBOOT">     0</i>
   <i type="int" name="NMIN">     0</i>
   <i name="EREF">      0.00000000</i>
   <separator name="electronic smearing" >
    <i type="int" name="ISMEAR">    -5</i>
    <i name="SIGMA">      0.20000000</i>
    <i name="KSPACING">      0.50000000</i>
    <i type="logical" name="KGAMMA"> T  </i>
   </separator>
   <separator name="electronic projectors" >
    <i type="logical" name="LREAL"> F  </i>
    <v name="ROPT">      0.00000000      0.00000000      0.00000000      0.00000000</v>
    <i type="int" name="LMAXPAW">  -100</i>
    <i type="int" name="LMAXMIX">     2</i>
    <i type="logical" name="NLSPLINE"> F  </i>
   </separator>
   <separator name="electronic startup" >
    <i type="int" name="ISTART">     0</i>
    <i type="int" name="ICHARG">     2</i>
    <i type="int" name="INIWAV">     1</i>
   </separator>
   <separator name="electronic spin" >
    <i type="int" name="ISPIN">     1</i>
    <i type="logical" name="LNONCOLLINEAR"> F  </i>
    <v name="MAGMOM">      1.00000000      1.00000000      1.00000000      1.00000000      1.00000000      1.00000000      1.00000000      1.00000000      1.00000000      1.00000000      1.00000000      1.00000000      1.00000000      1.00000000      1.00000000</v>
    <i name="NUPDOWN">     -1.00000000</i>
    <i type="logical" name="LSORBIT"> F  </i>
    <v name="SAXIS">      0.00000000      0.00000000      1.00000000</v>
    <i type="logical" name="LSPIRAL"> F  </i>
    <v name="QSPIRAL">      0.00000000      0.00000000      0.00000000</v>
    <i type="logical" name="LZEROZ"> F  </i>
   </separator>
   <separator name="electronic exchange-correlation" >
    <i type="logical" name="LASPH"> F  </i>
    <i type="logical" name="LMETAGGA"> F  </i>
   </separator>
   <separator name="electronic convergence" >
    <i type="int" name="NELM">    60</i>
    <i type="int" name="NELMDL">     0</i>
    <i type="int" name="NELMIN">     2</i>
    <i name="ENINI">    500.00000000</i>
    <separator name="electronic convergence detail" >
     <i type="logical" name="LDIAG"> T  </i>
     <i type="logical" name="LSUBROT"> F  </i>
     <i name="WEIMIN">      0.00000000</i>
     <i name="EBREAK">      0.00000003</i>
     <i name="DEPER">      0.30000000</i>
     <i type="int" name="NRMM">     4</i>
     <i name="TIME">      0.40000000</i>
    </separator>
   </separator>
   <separator name="electronic mixer" >
    <i name="AMIX">      0.40000000</i>
    <i name="BMIX">      1.00000000</i>
    <i name="AMIN">      0.10000000</i>
    <i name="AMIX_MAG">      1.60000000</i>
    <i name="BMIX_MAG">      1.00000000</i>
    <separator name="electronic mixer details" >
     <i type="int" name="IMIX">     4</i>
     <i type="logical" name="MIXFIRST"> F  </i>
     <i type="int" name="MAXMIX">   -45</i>
     <i name="WC">    100.00000000</i>
     <i type="int" name="INIMIX">     1</i>
     <i type="int" name="MIXPRE">     1</i>
     <i type="int" name="MREMOVE">     5</i>
    </separator>
   </separator>
   <separator name="electronic dipolcorrection" >
    <i type="logical" name="LDIPOL"> F  </i>
    <i type="logical" name="LMONO"> F  </i>
    <i type="int" name="IDIPOL">     0</i>
    <i name="EPSILON">      1.00000000</i>
    <v name="DIPOL">   -100.00000000   -100.00000000   -100.00000000</v>
    <i name="EFIELD">      0.00000000</i>
   </separator>
  </separator>
  <separator name="grids" >
   <i type="int" name="NGX">    42</i>
   <i type="int" name="NGY">    42</i>
   <i type="int" name="NGZ">    54</i>
   <i type="int" name="NGXF">    84</i>
   <i type="int" name="NGYF">    84</i>
   <i type="int" name="NGZF">   108</i>
   <i type="logical" name="ADDGRID"> F  </i>
  </separator>
  <separator name="ionic" >
   <i type="int" name="NSW">     0</i>
   <i type="int" name="IBRION">    -1</i>
   <i type="int" name="MDALGO">     0</i>
   <i type="int" name="ISIF">     2</i>
   <i name="PSTRESS">      0.00000000</i>
   <i name="EDIFFG">     -0.01000000</i>
   <i type="int" name="NFREE">     0</i>
   <i name="POTIM">      0.50000000</i>
   <i name="SMASS">     -3.00000000</i>
   <i name="SCALEE">      1.00000000</i>
  </separator>
  <separator name="ionic md" >
   <i name="TEBEG">      0.00010000</i>
   <i name="TEEND">      0.00010000</i>
   <i type="int" name="NBLOCK">     1</i>
   <i type="int" name="KBLOCK">     1</i>
   <i type="int" name="NPACO">   256</i>
   <i name="APACO">     16.00000000</i>
  </separator>
  <separator name="symmetry" >
   <i type="int" name="ISYM">     2</i>
   <i name="SYMPREC">      0.00001000</i>
  </separator>
  <separator name="dos" >
   <i type="int" name="LORBIT">     0</i>
   <v name="RWIGS">     -1.00000000     -1.00000000     -1.00000000     -1.00000000</v>
   <i type="int" name="NEDOS">   301</i>
   <i name="EMIN">     10.00000000</i>
   <i name="EMAX">    -10.00000000</i>
   <i name="EFERMI">      0.00000000</i>
  </separator>
  <separator name="writing" >
   <i type="int" name="NWRITE">     2</i>
   <i type="logical" name="LWAVE"> T  </i>
   <i type="logical" name="LDOWNSAMPLE"> F  </i>
   <i type="logical" name="LCHARG"> T  </i>
   <i type="logical" name="LPARD"> F  </i>
   <i type="logical" name="LVTOT"> F  </i>
   <i type="logical" name="LVHAR"> F  </i>
   <i type="logical" name="LELF"> F  </i>
   <i type="logical" name="LOPTICS"> F  </i>
   <v name="STM">      0.00000000      0.00000000      0.00000000      0.00000000      0.00000000      0.00000000      0.00000000</v>
  </separator>
  <separator name="performance" >
   <i type="int" name="NPAR">     4</i>
   <i type="int" name="NSIM">     4</i>
   <i type="int" name="NBLK">    -1</i>
   <i type="logical" name="LPLANE"> T  </i>
   <i type="logical" name="LSCALAPACK"> T  </i>
   <i type="logical" name="LSCAAWARE"> F  </i>
   <i type="logical" name="LSCALU"> F  </i>
   <i type="logical" name="LASYNC"> F  </i>
   <i type="logical" name="LORBITALREAL"> F  </i>
  </separator>
  <separator name="miscellaneous" >
   <i type="int" name="IDIOT">     3</i>
   <i type="int" name="ISPECIAL">     0</i>
   <i type="logical" name="LMUSIC"> F  </i>
   <v name="POMASS">     92.91000000     16.00000000     87.62000000     47.88000000</v>
   <v name="DARWINR">      0.00000000      0.00000000      0.00000000      0.00000000</v>
   <v name="DARWINV">      1.00000000      1.00000000      1.00000000      1.00000000</v>
   <i type="logical" name="LCORR"> T  </i>
  </separator>
  <i type="logical" name="GGA_COMPAT"> T  </i>
  <i type="logical" name="LBERRY"> F  </i>
  <i type="int" name="ICORELEVEL">     0</i>
  <i type="logical" name="LDAU"> F  </i>
  <i type="int" name="I_CONSTRAINED_M">     0</i>
  <separator name="electronic exchange-correlation" >
   <i type="string" name="GGA">--</i>
   <i type="int" name="VOSKOWN">     0</i>
   <i type="logical" name="LHFCALC"> F  </i>
   <i type="string" name="PRECFOCK"></i>
   <i type="logical" name="LSYMGRAD"> F  </i>
   <i type="logical" name="LHFONE"> F  </i>
   <i type="logical" name="LRHFCALC"> F  </i>
   <i type="logical" name="LTHOMAS"> F  </i>
   <i type="logical" name="LMODELHF"> F  </i>
   <i name="ENCUT4O">     -1.00000000</i>
   <i type="int" name="EXXOEP">     0</i>
   <i type="int" name="FOURORBIT">     0</i>
   <i name="AEXX">      0.00000000</i>
   <i name="HFALPHA">      0.00000000</i>
   <i name="MCALPHA">      0.00000000</i>
   <i name="ALDAX">      1.00000000</i>
   <i name="AGGAX">      1.00000000</i>
   <i name="ALDAC">      1.00000000</i>
   <i name="AGGAC">      1.00000000</i>
   <i type="int" name="NKREDX">     1</i>
   <i type="int" name="NKREDY">     1</i>
   <i type="int" name="NKREDZ">     1</i>
   <i type="logical" name="SHIFTRED"> F  </i>
   <i type="logical" name="ODDONLY"> F  </i>
   <i type="logical" name="EVENONLY"> F  </i>
   <i type="int" name="LMAXFOCK">     0</i>
   <i type="int" name="NMAXFOCKAE">     0</i>
   <i type="logical" name="LFOCKAEDFT"> F  </i>
   <i name="HFSCREEN">      0.00000000</i>
   <i name="HFSCREENC">      0.00000000</i>
   <i type="int" name="NBANDSGWLOW">     0</i>
  </separator>
  <separator name="vdW DFT" >
   <i type="logical" name="LUSE_VDW"> F  </i>
   <i name="Zab_VDW">     -0.84910000</i>
   <i name="PARAM1">      0.12340000</i>
   <i name="PARAM2">      1.00000000</i>
   <i name="PARAM3">      0.00000000</i>
  </separator>
  <separator name="model GW" >
   <i type="int" name="MODEL_GW">     0</i>
   <i name="MODEL_EPS0">      7.79901576</i>
   <i name="MODEL_ALPHA">      1.00000000</i>
  </separator>
  <separator name="linear response parameters" >
   <i type="logical" name="LEPSILON"> F  </i>
   <i type="logical" name="LRPA"> F  </i>
   <i type="logical" name="LNABLA"> F  </i>
   <i type="logical" name="LVEL"> F  </i>
   <i type="int" name="KINTER">     0</i>
   <i name="CSHIFT">      0.10000000</i>
   <i name="OMEGAMAX">     -1.00000000</i>
   <i name="DEG_THRESHOLD">      0.00200000</i>
   <i name="RTIME">     -0.10000000</i>
   <i name="WPLASMAI">      0.00000000</i>
   <v name="DFIELD">      0.00000000      0.00000000      0.00000000</v>
   <v name="WPLASMA">      0.00000000      0.00000000      0.00000000      0.00000000      0.00000000      0.00000000      0.00000000      0.00000000      0.00000000</v>
  </separator>
  <separator name="orbital magnetization" >
   <i type="logical" name="NUCIND"> F  </i>
   <v name="MAGPOS">      0.00000000      0.00000000      0.00000000</v>
   <i type="logical" name="LNICSALL"> T  </i>
   <i type="logical" name="ORBITALMAG"> F  </i>
   <i type="logical" name="LMAGBLOCH"> F  </i>
   <i type="logical" name="LCHIMAG"> F  </i>
   <i type="logical" name="LGAUGE"> T  </i>
   <i type="int" name="MAGATOM">     0</i>
   <v name="MAGDIPOL">      0.00000000      0.00000000      0.00000000</v>
   <v name="AVECCONST">      0.00000000      0.00000000      0.00000000</v>
  </separator>
  <separator name="response functions" >
   <i type="logical" name="LADDER"> F  </i>
   <i type="logical" name="LRPAFORCE"> F  </i>
   <i type="logical" name="LFXC"> F  </i>
   <i type="logical" name="LHARTREE"> T  </i>
   <i type="int" name="IBSE">     0</i>
   <v type="int" name="KPOINT">    -1     0     0     0</v>
   <i type="logical" name="LTCTE"> F  </i>
   <i type="logical" name="LTETE"> F  </i>
   <i type="logical" name="LTRIPLET"> F  </i>
   <i type="logical" name="LFXCEPS"> F  </i>
   <i type="logical" name="LFXHEG"> F  </i>
   <i type="int" name="NATURALO">     2</i>
   <i type="logical" name="L2ORDER"> F  </i>
   <i type="logical" name="LMP2LT"> F  </i>
   <i type="logical" name="LUSEW"> F  </i>
   <i name="ENCUTGW">     -2.00000000</i>
   <i name="ENCUTGWSOFT">     -2.00000000</i>
   <i name="ENCUTLF">     -1.00000000</i>
   <i type="int" name="LMAXMP2">    -1</i>
   <i name="SCISSOR">      0.00000000</i>
   <i type="int" name="NOMEGA">     0</i>
   <i type="int" name="NOMEGAR">     0</i>
   <i type="int" name="NBANDSGW">    -1</i>
   <i type="int" name="NBANDSO">    -1</i>
   <i type="int" name="NBANDSV">    -1</i>
   <i type="int" name="NELM">     1</i>
   <i type="int" name="NELMHF">     1</i>
   <i type="int" name="DIM">     3</i>
   <i type="int" name="ANTIRES">     0</i>
   <i name="OMEGAMAX">    -30.00000000</i>
   <i name="OMEGAMIN">    -30.00000000</i>
   <i name="OMEGATL">   -200.00000000</i>
   <i type="int" name="OMEGAGRID">   140</i>
   <i name="CSHIFT">     -0.10000000</i>
   <i type="logical" name="SELFENERGY"> F  </i>
   <i type="logical" name="LSPECTRAL"> F  </i>
   <i type="logical" name="LSPECTRALGW"> F  </i>
   <i type="logical" name="LSINGLES"> F  </i>
   <i type="logical" name="LFERMIGW"> F  </i>
   <i type="logical" name="ODDONLYGW"> F  </i>
   <i type="logical" name="EVENONLYGW"> F  </i>
   <i type="int" name="NKREDLFX">     1</i>
   <i type="int" name="NKREDLFY">     1</i>
   <i type="int" name="NKREDLFZ">     1</i>
   <i type="int" name="MAXMEM">  2800</i>
   <i type="int" name="TELESCOPE">     0</i>
   <i type="int" name="TAUPAR">     1</i>
   <i type="int" name="OMEGAPAR">    -1</i>
   <i name="LAMBDA">      1.00000000</i>
  </separator>
  <separator name="External order field" >
   <i name="OFIELD_KAPPA">      0.00000000</i>
   <v name="OFIELD_K">      0.00000000      0.00000000      0.00000000</v>
   <i name="OFIELD_Q6_NEAR">      0.00000000</i>
   <i name="OFIELD_Q6_FAR">      0.00000000</i>
   <i name="OFIELD_A">      0.00000000</i>
  </separator>
 </parameters>
 <atominfo>
  <atoms>      15 </atoms>
  <types>       4 </types>
  <array name="atoms" >
   <dimension dim="1">ion</dimension>
   <field type="string">element</field>
   <field type="int">atomtype</field>
   <set>
    <rc><c>Nb</c><c>   1</c></rc>
    <rc><c>Nb</c><c>   1</c></rc>
    <rc><c>O </c><c>   2</c></rc>
    <rc><c>O </c><c>   2</c></rc>
    <rc><c>O </c><c>   2</c></rc>
    <rc><c>O </c><c>   2</c></rc>
    <rc><c>O </c><c>   2</c></rc>
    <rc><c>O </c><c>   2</c></rc>
    <rc><c>O </c><c>   2</c></rc>
    <rc><c>O </c><c>   2</c></rc>
    <rc><c>O </c><c>   2</c></rc>
    <rc><c>Sr</c><c>   3</c></rc>
    <rc><c>Sr</c><c>   3</c></rc>
    <rc><c>Sr</c><c>   3</c></rc>
    <rc><c>Ti</c><c>   4</c></rc>
   </set>
  </array>
  <array name="atomtypes" >
   <dimension dim="1">type</dimension>
   <field type="int">atomspertype</field>
   <field type="string">element</field>
   <field>mass</field>
   <field>valence</field>
   <field type="string">pseudopotential</field>
   <set>
    <rc><c>   2</c><c>Nb</c><c>     92.91000000</c><c>     13.00000000</c><c>  PAW_PBE Nb_sv 25May2007               </c></rc>
    <rc><c>   9</c><c>O </c><c>     16.00000000</c><c>      6.00000000</c><c>  PAW_PBE O 08Apr2002                   </c></rc>
    <rc><c>   3</c><c>Sr</c><c>     87.62000000</c><c>     10.00000000</c><c>  PAW_PBE Sr_sv 07Sep2000               </c></rc>
    <rc><c>   1</c><c>Ti</c><c>     47.88000000</c><c>     12.00000000</c><c>  PAW_PBE Ti_sv 26Sep2005               </c></rc>
   </set>
  </array>
 </atominfo>
 <structure name="initialpos" >
  <crystal>
   <varray name="basis" >
    <v>      -4.01863406      -4.01863406       0.00000000 </v>
    <v>       4.01863406       0.00000000      -4.01863406 </v>
    <v>       4.02440453      -4.02440453       4.02440453 </v>
   </varray>
   <i name="volume">    194.97539390 </i>
   <varray name="rec_basis" >
    <v>      -0.08294692      -0.16589385      -0.08294692 </v>
    <v>       0.08294692      -0.08294692      -0.16589385 </v>
    <v>       0.08282799      -0.08282799       0.08282799 </v>
   </varray>
  </crystal>
  <varray name="positions" >
   <v>       0.00000000       0.00000000       0.49518917 </v>
   <v>       0.66666667       0.33333333       0.83814416 </v>
   <v>       0.83333333       0.16666667       0.66666667 </v>
   <v>       0.66495985       0.83247993       0.33158445 </v>
   <v>       0.83333333       0.66666667       0.66666667 </v>
   <v>       0.49914659       0.50085341       0.00174888 </v>
   <v>       0.33333333       0.16666667       0.66666667 </v>
   <v>       0.49914659       0.99829318       0.00174888 </v>
   <v>       0.16752007       0.83247993       0.33158445 </v>
   <v>       0.00170682       0.50085341       0.00174888 </v>
   <v>       0.16752007       0.33504015       0.33158445 </v>
   <v>       0.33333333       0.66666667       0.66666667 </v>
   <v>       0.00000000       0.00000000       0.00501523 </v>
   <v>       0.66666667       0.33333333       0.32831810 </v>
   <v>       0.33333333       0.66666667       0.16666667 </v>
  </varray>
 </structure>
 <calculation>
  <scstep>
   <time name="dav">    1.33    1.34</time>
   <time name="total">    1.39    1.40</time>
   <energy>
    <i name="alphaZ">    677.66337943 </i>
    <i name="ewald">  -8747.37709319 </i>
    <i name="hartreedc">  -2486.30953341 </i>
    <i name="XCdc">    533.65807687 </i>
    <i name="pawpsdc">   8744.62432914 </i>
    <i name="pawaedc">  -8661.14482049 </i>
    <i name="eentropy">      0.00000000 </i>
    <i name="bandstr">    135.36053253 </i>
    <i name="atom">  11118.75352351 </i>
    <i name="e_fr_energy">   1315.22839438 </i>
    <i name="e_wo_entrp">   1315.22839438 </i>
    <i name="e_0_energy">   1315.22839438 </i>
   </energy>
  </scstep>
  <scstep>
   <time name="dav">    1.52    1.52</time>
   <time name="total">    1.54    1.54</time>
   <energy>
    <i name="e_fr_energy">     17.66064182 </i>
    <i name="e_wo_entrp">     17.66064182 </i>
    <i name="e_0_energy">     17.66064182 </i>
   </energy>
  </scstep>
  <scstep>
   <time name="dav">    1.67    1.67</time>
   <time name="total">    1.69    1.70</time>
   <energy>
    <i name="e_fr_energy">   -133.73785061 </i>
    <i name="e_wo_entrp">   -133.73785061 </i>
    <i name="e_0_energy">   -133.73785061 </i>
   </energy>
  </scstep>
  <scstep>
   <time name="dav">    2.04    2.04</time>
   <time name="total">    2.06    2.06</time>
   <energy>
    <i name="e_fr_energy">   -145.27596992 </i>
    <i name="e_wo_entrp">   -145.27596992 </i>
    <i name="e_0_energy">   -145.27596992 </i>
   </energy>
  </scstep>
  <scstep>
   <time name="dav">    1.85    1.85</time>
   <time name="total">    1.95    1.96</time>
   <energy>
    <i name="e_fr_energy">   -145.79007359 </i>
    <i name="e_wo_entrp">   -145.79007359 </i>
    <i name="e_0_energy">   -145.79007359 </i>
   </energy>
  </scstep>
  <scstep>
   <time name="dav">    1.69    1.69</time>
   <time name="total">    1.83    1.83</time>
   <energy>
    <i name="e_fr_energy">   -122.62916913 </i>
    <i name="e_wo_entrp">   -122.62916913 </i>
    <i name="e_0_energy">   -122.62916913 </i>
   </energy>
  </scstep>
  <scstep>
   <time name="dav">    1.75    1.75</time>
   <time name="total">    1.88    1.88</time>
   <energy>
    <i name="e_fr_energy">   -123.41524659 </i>
    <i name="e_wo_entrp">   -123.41524659 </i>
    <i name="e_0_energy">   -123.41524659 </i>
   </energy>
  </scstep>
  <scstep>
   <time name="dav">    1.96    1.97</time>
   <time name="total">    2.10    2.10</time>
   <energy>
    <i name="e_fr_energy">   -122.29524844 </i>
    <i name="e_wo_entrp">   -122.29524844 </i>
    <i name="e_0_energy">   -122.29524844 </i>
   </energy>
  </scstep>
  <scstep>
   <time name="dav">    1.83    1.83</time>
   <time name="total">    1.96    1.96</time>
   <energy>
    <i name="e_fr_energy">   -122.43027351 </i>
    <i name="e_wo_entrp">   -122.43027351 </i>
    <i name="e_0_energy">   -122.43027351 </i>
   </energy>
  </scstep>
  <scstep>
   <time name="dav">    1.68    1.69</time>
   <time name="total">    1.82    1.82</time>
   <energy>
    <i name="e_fr_energy">   -122.34935820 </i>
    <i name="e_wo_entrp">   -122.34935820 </i>
    <i name="e_0_energy">   -122.34935820 </i>
   </energy>
  </scstep>
  <scstep>
   <time name="dav">    1.74    1.75</time>
   <time name="total">    1.88    1.88</time>
   <energy>
    <i name="e_fr_energy">   -122.33925775 </i>
    <i name="e_wo_entrp">   -122.33925775 </i>
    <i name="e_0_energy">   -122.33925775 </i>
   </energy>
  </scstep>
  <scstep>
   <time name="dav">    1.72    1.73</time>
   <time name="total">    1.86    1.86</time>
   <energy>
    <i name="e_fr_energy">   -122.34387317 </i>
    <i name="e_wo_entrp">   -122.34387317 </i>
    <i name="e_0_energy">   -122.34387317 </i>
   </energy>
  </scstep>
  <scstep>
   <time name="dav">    1.73    1.73</time>
   <time name="total">    1.86    1.86</time>
   <energy>
    <i name="e_fr_energy">   -122.33965238 </i>
    <i name="e_wo_entrp">   -122.33965238 </i>
    <i name="e_0_energy">   -122.33965238 </i>
   </energy>
  </scstep>
  <scstep>
   <time name="dav">    1.93    1.93</time>
   <time name="total">    2.06    2.07</time>
   <energy>
    <i name="e_fr_energy">   -122.33960826 </i>
    <i name="e_wo_entrp">   -122.33960826 </i>
    <i name="e_0_energy">   -122.33960826 </i>
   </energy>
  </scstep>
  <scstep>
   <time name="dav">    1.62    1.62</time>
   <time name="total">    1.76    1.76</time>
   <energy>
    <i name="e_fr_energy">   -122.33951164 </i>
    <i name="e_wo_entrp">   -122.33951164 </i>
    <i name="e_0_energy">   -122.33951164 </i>
   </energy>
  </scstep>
  <scstep>
   <time name="dav">    1.80    1.81</time>
   <time name="total">    1.94    1.94</time>
   <energy>
    <i name="e_fr_energy">   -122.33951362 </i>
    <i name="e_wo_entrp">   -122.33951362 </i>
    <i name="e_0_energy">   -122.33951362 </i>
   </energy>
  </scstep>
  <scstep>
   <time name="dav">    1.39    1.39</time>
   <time name="total">    1.44    1.44</time>
   <energy>
    <i name="alphaZ">    677.66337943 </i>
    <i name="ewald">  -8747.37709319 </i>
    <i name="hartreedc">  -2522.47531825 </i>
    <i name="XCdc">    538.43851097 </i>
    <i name="pawpsdc">  13228.51598059 </i>
    <i name="pawaedc"> -13157.64078222 </i>
    <i name="eentropy">      0.00000000 </i>
    <i name="bandstr">  -1258.21771250 </i>
    <i name="atom">  11118.75352351 </i>
    <i name="e_fr_energy">   -122.33951167 </i>
    <i name="e_wo_entrp">   -122.33951167 </i>
    <i name="e_0_energy">   -122.33951167 </i>
   </energy>
  </scstep>
  <structure>
   <crystal>
    <varray name="basis" >
     <v>      -4.01863406      -4.01863406       0.00000000 </v>
     <v>       4.01863406       0.00000000      -4.01863406 </v>
     <v>       4.02440453      -4.02440453       4.02440453 </v>
    </varray>
    <i name="volume">    194.97539390 </i>
    <varray name="rec_basis" >
     <v>      -0.08294692      -0.16589385      -0.08294692 </v>
     <v>       0.08294692      -0.08294692      -0.16589385 </v>
     <v>       0.08282799      -0.08282799       0.08282799 </v>
    </varray>
   </crystal>
   <varray name="positions" >
    <v>       0.00000000       0.00000000       0.49518917 </v>
    <v>       0.66666667       0.33333333       0.83814416 </v>
    <v>       0.83333333       0.16666667       0.66666667 </v>
    <v>       0.66495985       0.83247993       0.33158445 </v>
    <v>       0.83333333       0.66666667       0.66666667 </v>
    <v>       0.49914659       0.50085341       0.00174888 </v>
    <v>       0.33333333       0.16666667       0.66666667 </v>
    <v>       0.49914659       0.99829318       0.00174888 </v>
    <v>       0.16752007       0.83247993       0.33158445 </v>
    <v>       0.00170682       0.50085341       0.00174888 </v>
    <v>       0.16752007       0.33504015       0.33158445 </v>
    <v>       0.33333333       0.66666667       0.66666667 </v>
    <v>       0.00000000       0.00000000       0.00501523 </v>
    <v>       0.66666667       0.33333333       0.32831810 </v>
    <v>       0.33333333       0.66666667       0.16666667 </v>
   </varray>
  </structure>
  <varray name="forces" >
   <v>      -0.00096506       0.00096506      -0.00096506 </v>
   <v>       0.00096506      -0.00096506       0.00096506 </v>
   <v>      -0.00000000       0.00000000      -0.00000000 </v>
   <v>       0.01520309       0.00631995       0.01520309 </v>
   <v>      -0.00000000       0.00000000      -0.00000000 </v>
   <v>       0.00631995       0.01520309      -0.01520309 </v>
   <v>      -0.00000000       0.00000000      -0.00000000 </v>
   <v>      -0.01520309       0.01520309       0.00631995 </v>
   <v>      -0.00631995      -0.01520309       0.01520309 </v>
   <v>      -0.01520309      -0.00631995      -0.01520309 </v>
   <v>       0.01520309      -0.01520309      -0.00631995 </v>
   <v>      -0.00000000       0.00000000      -0.00000000 </v>
   <v>       0.00981596      -0.00981596       0.00981596 </v>
   <v>      -0.00981596       0.00981596      -0.00981596 </v>
   <v>      -0.00000000       0.00000000      -0.00000000 </v>
  </varray>
  <varray name="stress" >
   <v>       2.09895049       0.15180605      -0.15180605 </v>
   <v>       0.15180605       2.09895049       0.15180605 </v>
   <v>      -0.15180605       0.15180605       2.09895049 </v>
  </varray>
  <energy>
   <i name="e_fr_energy">   -122.33951167 </i>
   <i name="e_wo_entrp">   -122.33951167 </i>
   <i name="e_0_energy">      0.00000000 </i>
  </energy>
  <time name="totalsc">   33.25   34.16</time>
  <eigenvalues>
   <array>
    <dimension dim="1">band</dimension>
    <dimension dim="2">kpoint</dimension>
    <dimension dim="3">spin</dimension>
    <field>eigene</field>
    <field>occ</field>
    <set>
     <set comment="spin 1">
      <set comment="kpoint 1">
       <r>  -51.1807    1.0000 </r>
       <r>  -49.6710    1.0000 </r>
       <r>  -49.6677    1.0000 </r>
       <r>  -28.9896    1.0000 </r>
       <r>  -28.9275    1.0000 </r>
       <r>  -28.9080    1.0000 </r>
       <r>  -27.4832    1.0000 </r>
       <r>  -27.4832    1.0000 </r>
       <r>  -27.4799    1.0000 </r>
       <r>  -25.9267    1.0000 </r>
       <r>  -25.9202    1.0000 </r>
       <r>  -25.9202    1.0000 </r>
       <r>  -25.8592    1.0000 </r>
       <r>  -25.8566    1.0000 </r>
       <r>  -25.8566    1.0000 </r>
       <r>  -13.0532    1.0000 </r>
       <r>  -12.4524    1.0000 </r>
       <r>  -12.4524    1.0000 </r>
       <r>  -12.3689    1.0000 </r>
       <r>  -12.3447    1.0000 </r>
       <r>  -12.0156    1.0000 </r>
       <r>  -12.0156    1.0000 </r>
       <r>  -11.8776    1.0000 </r>
       <r>  -11.8776    1.0000 </r>
       <r>  -10.9988    1.0000 </r>
       <r>  -10.9988    1.0000 </r>
       <r>  -10.9333    1.0000 </r>
       <r>  -10.9140    1.0000 </r>
       <r>  -10.9140    1.0000 </r>
       <r>  -10.8885    1.0000 </r>
       <r>  -10.8885    1.0000 </r>
       <r>  -10.6869    1.0000 </r>
       <r>  -10.6471    1.0000 </r>
       <r>   -0.0932    1.0000 </r>
       <r>   -0.0800    1.0000 </r>
       <r>   -0.0800    1.0000 </r>
       <r>    0.3428    1.0000 </r>
       <r>    0.4608    1.0000 </r>
       <r>    0.4608    1.0000 </r>
       <r>    0.5527    1.0000 </r>
       <r>    0.7068    1.0000 </r>
       <r>    0.7068    1.0000 </r>
       <r>    0.7314    1.0000 </r>
       <r>    0.8494    1.0000 </r>
       <r>    0.8494    1.0000 </r>
       <r>    1.6968    1.0000 </r>
       <r>    1.6981    1.0000 </r>
       <r>    1.6981    1.0000 </r>
       <r>    2.9137    1.0000 </r>
       <r>    2.9242    1.0000 </r>
       <r>    2.9242    1.0000 </r>
       <r>    3.3528    1.0000 </r>
       <r>    3.3528    1.0000 </r>
       <r>    3.4969    1.0000 </r>
       <r>    3.4969    1.0000 </r>
       <r>    3.5951    1.0000 </r>
       <r>    3.6517    1.0000 </r>
       <r>    3.6517    1.0000 </r>
       <r>    3.6639    1.0000 </r>
       <r>    3.8001    1.0000 </r>
       <r>    6.3631    1.0000 </r>
       <r>    6.3641    1.0000 </r>
       <r>    6.3641    1.0000 </r>
       <r>    8.7711    0.0000 </r>
       <r>    8.8115    0.0000 </r>
       <r>    8.8115    0.0000 </r>
       <r>    8.9388    0.0000 </r>
       <r>    8.9723    0.0000 </r>
       <r>    8.9723    0.0000 </r>
       <r>    9.3492    0.0000 </r>
       <r>    9.3492    0.0000 </r>
       <r>    9.4507    0.0000 </r>
       <r>    9.6459    0.0000 </r>
       <r>    9.6459    0.0000 </r>
       <r>   11.3135    0.0000 </r>
       <r>   11.3911    0.0000 </r>
      </set>
      <set comment="kpoint 2">
       <r>  -51.1808    1.0000 </r>
       <r>  -49.6708    1.0000 </r>
       <r>  -49.6679    1.0000 </r>
       <r>  -28.9891    1.0000 </r>
       <r>  -28.9271    1.0000 </r>
       <r>  -28.9093    1.0000 </r>
       <r>  -27.4833    1.0000 </r>
       <r>  -27.4828    1.0000 </r>
       <r>  -27.4800    1.0000 </r>
       <r>  -25.9268    1.0000 </r>
       <r>  -25.9209    1.0000 </r>
       <r>  -25.9207    1.0000 </r>
       <r>  -25.8587    1.0000 </r>
       <r>  -25.8562    1.0000 </r>
       <r>  -25.8557    1.0000 </r>
       <r>  -13.0477    1.0000 </r>
       <r>  -12.5401    1.0000 </r>
       <r>  -12.4834    1.0000 </r>
       <r>  -12.4493    1.0000 </r>
       <r>  -12.3196    1.0000 </r>
       <r>  -12.0671    1.0000 </r>
       <r>  -11.9845    1.0000 </r>
       <r>  -11.9182    1.0000 </r>
       <r>  -11.9017    1.0000 </r>
       <r>  -11.0344    1.0000 </r>
       <r>  -10.9954    1.0000 </r>
       <r>  -10.9168    1.0000 </r>
       <r>  -10.9137    1.0000 </r>
       <r>  -10.8560    1.0000 </r>
       <r>  -10.7431    1.0000 </r>
       <r>  -10.7347    1.0000 </r>
       <r>  -10.6703    1.0000 </r>
       <r>  -10.6336    1.0000 </r>
       <r>   -0.3577    1.0000 </r>
       <r>   -0.1675    1.0000 </r>
       <r>   -0.1039    1.0000 </r>
       <r>    0.1437    1.0000 </r>
       <r>    0.2075    1.0000 </r>
       <r>    0.5070    1.0000 </r>
       <r>    0.6829    1.0000 </r>
       <r>    0.8464    1.0000 </r>
       <r>    0.8716    1.0000 </r>
       <r>    0.9442    1.0000 </r>
       <r>    1.1614    1.0000 </r>
       <r>    1.3390    1.0000 </r>
       <r>    1.5305    1.0000 </r>
       <r>    1.6738    1.0000 </r>
       <r>    1.6740    1.0000 </r>
       <r>    2.5945    1.0000 </r>
       <r>    2.6504    1.0000 </r>
       <r>    2.9447    1.0000 </r>
       <r>    3.1128    1.0000 </r>
       <r>    3.2034    1.0000 </r>
       <r>    3.2206    1.0000 </r>
       <r>    3.2637    1.0000 </r>
       <r>    3.4148    1.0000 </r>
       <r>    3.4403    1.0000 </r>
       <r>    3.4945    1.0000 </r>
       <r>    3.6556    1.0000 </r>
       <r>    3.8152    1.0000 </r>
       <r>    6.5397    1.0042 </r>
       <r>    6.7285    1.0463 </r>
       <r>    6.7392    1.0349 </r>
       <r>    8.5080    0.0000 </r>
       <r>    8.7129    0.0000 </r>
       <r>    8.7406    0.0000 </r>
       <r>    8.9988    0.0000 </r>
       <r>    9.0542    0.0000 </r>
       <r>    9.1693    0.0000 </r>
       <r>    9.6264    0.0000 </r>
       <r>    9.6351    0.0000 </r>
       <r>    9.7999    0.0000 </r>
       <r>    9.8256    0.0000 </r>
       <r>   10.0808    0.0000 </r>
       <r>   11.2273    0.0000 </r>
       <r>   11.5442    0.0000 </r>
      </set>
      <set comment="kpoint 3">
       <r>  -51.1808    1.0000 </r>
       <r>  -49.6703    1.0000 </r>
       <r>  -49.6684    1.0000 </r>
       <r>  -28.9881    1.0000 </r>
       <r>  -28.9257    1.0000 </r>
       <r>  -28.9125    1.0000 </r>
       <r>  -27.4834    1.0000 </r>
       <r>  -27.4821    1.0000 </r>
       <r>  -27.4803    1.0000 </r>
       <r>  -25.9271    1.0000 </r>
       <r>  -25.9234    1.0000 </r>
       <r>  -25.9218    1.0000 </r>
       <r>  -25.8573    1.0000 </r>
       <r>  -25.8554    1.0000 </r>
       <r>  -25.8532    1.0000 </r>
       <r>  -13.0374    1.0000 </r>
       <r>  -12.7264    1.0000 </r>
       <r>  -12.6100    1.0000 </r>
       <r>  -12.4384    1.0000 </r>
       <r>  -12.2240    1.0000 </r>
       <r>  -12.1406    1.0000 </r>
       <r>  -12.0616    1.0000 </r>
       <r>  -11.9815    1.0000 </r>
       <r>  -11.9695    1.0000 </r>
       <r>  -11.0014    1.0000 </r>
       <r>  -10.9028    1.0000 </r>
       <r>  -10.8990    1.0000 </r>
       <r>  -10.8566    1.0000 </r>
       <r>  -10.7173    1.0000 </r>
       <r>  -10.6729    1.0000 </r>
       <r>  -10.5915    1.0000 </r>
       <r>  -10.5807    1.0000 </r>
       <r>  -10.5611    1.0000 </r>
       <r>   -0.4355    1.0000 </r>
       <r>   -0.3126    1.0000 </r>
       <r>   -0.2966    1.0000 </r>
       <r>   -0.0818    1.0000 </r>
       <r>    0.2715    1.0000 </r>
       <r>    0.7009    1.0000 </r>
       <r>    0.8907    1.0000 </r>
       <r>    0.9348    1.0000 </r>
       <r>    1.1024    1.0000 </r>
       <r>    1.1714    1.0000 </r>
       <r>    1.2186    1.0000 </r>
       <r>    1.4047    1.0000 </r>
       <r>    1.5994    1.0000 </r>
       <r>    1.7028    1.0000 </r>
       <r>    1.9745    1.0000 </r>
       <r>    1.9898    1.0000 </r>
       <r>    2.2943    1.0000 </r>
       <r>    2.6112    1.0000 </r>
       <r>    2.7699    1.0000 </r>
       <r>    2.7815    1.0000 </r>
       <r>    3.0016    1.0000 </r>
       <r>    3.0440    1.0000 </r>
       <r>    3.0730    1.0000 </r>
       <r>    3.1712    1.0000 </r>
       <r>    3.2179    1.0000 </r>
       <r>    3.4250    1.0000 </r>
       <r>    3.9109    1.0000 </r>
       <r>    6.9736    0.9540 </r>
       <r>    7.4925    0.0129 </r>
       <r>    7.4932    0.0000 </r>
       <r>    8.0545    0.0000 </r>
       <r>    8.6541    0.0000 </r>
       <r>    8.6708    0.0000 </r>
       <r>    8.8493    0.0000 </r>
       <r>    8.8776    0.0000 </r>
       <r>    9.3326    0.0000 </r>
       <r>   10.1623    0.0000 </r>
       <r>   10.3517    0.0000 </r>
       <r>   10.3544    0.0000 </r>
       <r>   10.4602    0.0000 </r>
       <r>   10.7642    0.0000 </r>
       <r>   11.2466    0.0000 </r>
       <r>   11.6181    0.0000 </r>
      </set>
      <set comment="kpoint 4">
       <r>  -51.1808    1.0000 </r>
       <r>  -49.6699    1.0000 </r>
       <r>  -49.6688    1.0000 </r>
       <r>  -28.9876    1.0000 </r>
       <r>  -28.9243    1.0000 </r>
       <r>  -28.9148    1.0000 </r>
       <r>  -27.4835    1.0000 </r>
       <r>  -27.4817    1.0000 </r>
       <r>  -27.4803    1.0000 </r>
       <r>  -25.9271    1.0000 </r>
       <r>  -25.9253    1.0000 </r>
       <r>  -25.9224    1.0000 </r>
       <r>  -25.8565    1.0000 </r>
       <r>  -25.8550    1.0000 </r>
       <r>  -25.8516    1.0000 </r>
       <r>  -13.0232    1.0000 </r>
       <r>  -12.8337    1.0000 </r>
       <r>  -12.6376    1.0000 </r>
       <r>  -12.4300    1.0000 </r>
       <r>  -12.1728    1.0000 </r>
       <r>  -12.1686    1.0000 </r>
       <r>  -12.1061    1.0000 </r>
       <r>  -12.0301    1.0000 </r>
       <r>  -12.0033    1.0000 </r>
       <r>  -10.9650    1.0000 </r>
       <r>  -10.8965    1.0000 </r>
       <r>  -10.8638    1.0000 </r>
       <r>  -10.7867    1.0000 </r>
       <r>  -10.7437    1.0000 </r>
       <r>  -10.6344    1.0000 </r>
       <r>  -10.5352    1.0000 </r>
       <r>  -10.5157    1.0000 </r>
       <r>  -10.5082    1.0000 </r>
       <r>   -0.4516    1.0000 </r>
       <r>   -0.3780    1.0000 </r>
       <r>   -0.3485    1.0000 </r>
       <r>   -0.0456    1.0000 </r>
       <r>    0.5135    1.0000 </r>
       <r>    0.6014    1.0000 </r>
       <r>    0.9156    1.0000 </r>
       <r>    0.9970    1.0000 </r>
       <r>    1.0670    1.0000 </r>
       <r>    1.2715    1.0000 </r>
       <r>    1.2881    1.0000 </r>
       <r>    1.3882    1.0000 </r>
       <r>    1.5222    1.0000 </r>
       <r>    1.5325    1.0000 </r>
       <r>    1.7173    1.0000 </r>
       <r>    2.1882    1.0000 </r>
       <r>    2.2191    1.0000 </r>
       <r>    2.5135    1.0000 </r>
       <r>    2.5161    1.0000 </r>
       <r>    2.6873    1.0000 </r>
       <r>    2.9313    1.0000 </r>
       <r>    2.9476    1.0000 </r>
       <r>    3.0246    1.0000 </r>
       <r>    3.0585    1.0000 </r>
       <r>    3.1569    1.0000 </r>
       <r>    3.2236    1.0000 </r>
       <r>    3.9450    1.0000 </r>
       <r>    7.4820    0.0370 </r>
       <r>    7.5530    0.0000 </r>
       <r>    8.2502    0.0000 </r>
       <r>    8.2583    0.0000 </r>
       <r>    8.2651    0.0000 </r>
       <r>    8.2770    0.0000 </r>
       <r>    8.6883    0.0000 </r>
       <r>    8.6960    0.0000 </r>
       <r>    9.3805    0.0000 </r>
       <r>   10.3481    0.0000 </r>
       <r>   10.4340    0.0000 </r>
       <r>   11.0937    0.0000 </r>
       <r>   11.1434    0.0000 </r>
       <r>   11.1635    0.0000 </r>
       <r>   11.2288    0.0000 </r>
       <r>   11.3997    0.0000 </r>
      </set>
      <set comment="kpoint 5">
       <r>  -51.1807    1.0000 </r>
       <r>  -49.6705    1.0000 </r>
       <r>  -49.6683    1.0000 </r>
       <r>  -28.9884    1.0000 </r>
       <r>  -28.9260    1.0000 </r>
       <r>  -28.9117    1.0000 </r>
       <r>  -27.4833    1.0000 </r>
       <r>  -27.4824    1.0000 </r>
       <r>  -27.4802    1.0000 </r>
       <r>  -25.9272    1.0000 </r>
       <r>  -25.9228    1.0000 </r>
       <r>  -25.9214    1.0000 </r>
       <r>  -25.8574    1.0000 </r>
       <r>  -25.8552    1.0000 </r>
       <r>  -25.8543    1.0000 </r>
       <r>  -13.0371    1.0000 </r>
       <r>  -12.6524    1.0000 </r>
       <r>  -12.6380    1.0000 </r>
       <r>  -12.3910    1.0000 </r>
       <r>  -12.3204    1.0000 </r>
       <r>  -12.0332    1.0000 </r>
       <r>  -12.0283    1.0000 </r>
       <r>  -12.0276    1.0000 </r>
       <r>  -11.9489    1.0000 </r>
       <r>  -10.9779    1.0000 </r>
       <r>  -10.9604    1.0000 </r>
       <r>  -10.9063    1.0000 </r>
       <r>  -10.8515    1.0000 </r>
       <r>  -10.7584    1.0000 </r>
       <r>  -10.6385    1.0000 </r>
       <r>  -10.6374    1.0000 </r>
       <r>  -10.6188    1.0000 </r>
       <r>  -10.6063    1.0000 </r>
       <r>   -0.4650    1.0000 </r>
       <r>   -0.2478    1.0000 </r>
       <r>   -0.0682    1.0000 </r>
       <r>   -0.0425    1.0000 </r>
       <r>    0.0896    1.0000 </r>
       <r>    0.5991    1.0000 </r>
       <r>    0.7215    1.0000 </r>
       <r>    0.9763    1.0000 </r>
       <r>    1.0675    1.0000 </r>
       <r>    1.0912    1.0000 </r>
       <r>    1.2221    1.0000 </r>
       <r>    1.3973    1.0000 </r>
       <r>    1.6301    1.0000 </r>
       <r>    1.8753    1.0000 </r>
       <r>    1.9633    1.0000 </r>
       <r>    1.9873    1.0000 </r>
       <r>    2.3720    1.0000 </r>
       <r>    2.7322    1.0000 </r>
       <r>    2.8780    1.0000 </r>
       <r>    2.9599    1.0000 </r>
       <r>    2.9680    1.0000 </r>
       <r>    2.9919    1.0000 </r>
       <r>    3.0112    1.0000 </r>
       <r>    3.1901    1.0000 </r>
       <r>    3.3499    1.0000 </r>
       <r>    3.7372    1.0000 </r>
       <r>    3.7528    1.0000 </r>
       <r>    6.9670    0.9857 </r>
       <r>    7.0993    0.3708 </r>
       <r>    7.3469    0.1053 </r>
       <r>    8.3969    0.0000 </r>
       <r>    8.3979    0.0000 </r>
       <r>    8.7366    0.0000 </r>
       <r>    8.9095    0.0000 </r>
       <r>    9.1487    0.0000 </r>
       <r>    9.1555    0.0000 </r>
       <r>    9.9225    0.0000 </r>
       <r>   10.1377    0.0000 </r>
       <r>   10.1504    0.0000 </r>
       <r>   10.5391    0.0000 </r>
       <r>   10.5566    0.0000 </r>
       <r>   11.3036    0.0000 </r>
       <r>   11.3365    0.0000 </r>
      </set>
      <set comment="kpoint 6">
       <r>  -51.1807    1.0000 </r>
       <r>  -49.6699    1.0000 </r>
       <r>  -49.6688    1.0000 </r>
       <r>  -28.9875    1.0000 </r>
       <r>  -28.9238    1.0000 </r>
       <r>  -28.9154    1.0000 </r>
       <r>  -27.4831    1.0000 </r>
       <r>  -27.4819    1.0000 </r>
       <r>  -27.4804    1.0000 </r>
       <r>  -25.9276    1.0000 </r>
       <r>  -25.9256    1.0000 </r>
       <r>  -25.9221    1.0000 </r>
       <r>  -25.8557    1.0000 </r>
       <r>  -25.8543    1.0000 </r>
       <r>  -25.8525    1.0000 </r>
       <r>  -13.0031    1.0000 </r>
       <r>  -12.8174    1.0000 </r>
       <r>  -12.7214    1.0000 </r>
       <r>  -12.3650    1.0000 </r>
       <r>  -12.2327    1.0000 </r>
       <r>  -12.1639    1.0000 </r>
       <r>  -12.1213    1.0000 </r>
       <r>  -11.9937    1.0000 </r>
       <r>  -11.9852    1.0000 </r>
       <r>  -10.9381    1.0000 </r>
       <r>  -10.8937    1.0000 </r>
       <r>  -10.8772    1.0000 </r>
       <r>  -10.7679    1.0000 </r>
       <r>  -10.6877    1.0000 </r>
       <r>  -10.6478    1.0000 </r>
       <r>  -10.5627    1.0000 </r>
       <r>  -10.5441    1.0000 </r>
       <r>  -10.5355    1.0000 </r>
       <r>   -0.3378    1.0000 </r>
       <r>   -0.2700    1.0000 </r>
       <r>   -0.2059    1.0000 </r>
       <r>   -0.0420    1.0000 </r>
       <r>    0.2036    1.0000 </r>
       <r>    0.5181    1.0000 </r>
       <r>    0.7792    1.0000 </r>
       <r>    0.9444    1.0000 </r>
       <r>    1.0743    1.0000 </r>
       <r>    1.2123    1.0000 </r>
       <r>    1.2908    1.0000 </r>
       <r>    1.3541    1.0000 </r>
       <r>    1.5084    1.0000 </r>
       <r>    1.5602    1.0000 </r>
       <r>    1.8839    1.0000 </r>
       <r>    2.2726    1.0000 </r>
       <r>    2.3730    1.0000 </r>
       <r>    2.4924    1.0000 </r>
       <r>    2.5581    1.0000 </r>
       <r>    2.6778    1.0000 </r>
       <r>    2.7521    1.0000 </r>
       <r>    2.8100    1.0000 </r>
       <r>    2.8526    1.0000 </r>
       <r>    3.0812    1.0000 </r>
       <r>    3.2997    1.0000 </r>
       <r>    3.5303    1.0000 </r>
       <r>    3.8356    1.0000 </r>
       <r>    7.4700    0.0762 </r>
       <r>    7.8274   -0.0034 </r>
       <r>    7.9621    0.0000 </r>
       <r>    8.0810    0.0000 </r>
       <r>    8.4611    0.0000 </r>
       <r>    8.4712    0.0000 </r>
       <r>    8.6600    0.0000 </r>
       <r>    8.7661    0.0000 </r>
       <r>    9.1986    0.0000 </r>
       <r>   10.1748    0.0000 </r>
       <r>   10.4023    0.0000 </r>
       <r>   10.8561    0.0000 </r>
       <r>   11.0318    0.0000 </r>
       <r>   11.1427    0.0000 </r>
       <r>   11.3125    0.0000 </r>
       <r>   11.5337    0.0000 </r>
      </set>
      <set comment="kpoint 7">
       <r>  -51.1807    1.0000 </r>
       <r>  -49.6694    1.0000 </r>
       <r>  -49.6694    1.0000 </r>
       <r>  -28.9872    1.0000 </r>
       <r>  -28.9198    1.0000 </r>
       <r>  -28.9198    1.0000 </r>
       <r>  -27.4824    1.0000 </r>
       <r>  -27.4824    1.0000 </r>
       <r>  -27.4805    1.0000 </r>
       <r>  -25.9275    1.0000 </r>
       <r>  -25.9275    1.0000 </r>
       <r>  -25.9222    1.0000 </r>
       <r>  -25.8535    1.0000 </r>
       <r>  -25.8535    1.0000 </r>
       <r>  -25.8533    1.0000 </r>
       <r>  -12.9000    1.0000 </r>
       <r>  -12.9000    1.0000 </r>
       <r>  -12.8357    1.0000 </r>
       <r>  -12.2438    1.0000 </r>
       <r>  -12.2438    1.0000 </r>
       <r>  -12.2214    1.0000 </r>
       <r>  -12.2175    1.0000 </r>
       <r>  -11.9691    1.0000 </r>
       <r>  -11.9691    1.0000 </r>
       <r>  -10.8911    1.0000 </r>
       <r>  -10.8911    1.0000 </r>
       <r>  -10.8676    1.0000 </r>
       <r>  -10.6625    1.0000 </r>
       <r>  -10.6625    1.0000 </r>
       <r>  -10.6612    1.0000 </r>
       <r>  -10.5614    1.0000 </r>
       <r>  -10.5614    1.0000 </r>
       <r>  -10.5447    1.0000 </r>
       <r>   -0.0981    1.0000 </r>
       <r>   -0.0502    1.0000 </r>
       <r>   -0.0502    1.0000 </r>
       <r>    0.0271    1.0000 </r>
       <r>    0.1841    1.0000 </r>
       <r>    0.1841    1.0000 </r>
       <r>    0.3463    1.0000 </r>
       <r>    0.8115    1.0000 </r>
       <r>    0.8115    1.0000 </r>
       <r>    1.3293    1.0000 </r>
       <r>    1.3903    1.0000 </r>
       <r>    1.3903    1.0000 </r>
       <r>    1.6441    1.0000 </r>
       <r>    1.6441    1.0000 </r>
       <r>    1.7884    1.0000 </r>
       <r>    2.3014    1.0000 </r>
       <r>    2.3127    1.0000 </r>
       <r>    2.3127    1.0000 </r>
       <r>    2.5509    1.0000 </r>
       <r>    2.5613    1.0000 </r>
       <r>    2.5613    1.0000 </r>
       <r>    2.8705    1.0000 </r>
       <r>    2.9319    1.0000 </r>
       <r>    2.9319    1.0000 </r>
       <r>    3.6028    1.0000 </r>
       <r>    3.6028    1.0000 </r>
       <r>    3.6062    1.0000 </r>
       <r>    8.1045   -0.0698 </r>
       <r>    8.1045    0.0000 </r>
       <r>    8.1379    0.0000 </r>
       <r>    8.1787    0.0000 </r>
       <r>    8.2344    0.0000 </r>
       <r>    8.2344    0.0000 </r>
       <r>    8.7112    0.0000 </r>
       <r>    8.7182    0.0000 </r>
       <r>    8.7182    0.0000 </r>
       <r>   10.1773    0.0000 </r>
       <r>   10.1773    0.0000 </r>
       <r>   10.9486    0.0000 </r>
       <r>   11.3784    0.0000 </r>
       <r>   11.3902    0.0000 </r>
       <r>   11.4624    0.0000 </r>
       <r>   11.7516    0.0000 </r>
      </set>
      <set comment="kpoint 8">
       <r>  -51.1808    1.0000 </r>
       <r>  -49.6710    1.0000 </r>
       <r>  -49.6677    1.0000 </r>
       <r>  -28.9897    1.0000 </r>
       <r>  -28.9296    1.0000 </r>
       <r>  -28.9070    1.0000 </r>
       <r>  -27.4832    1.0000 </r>
       <r>  -27.4832    1.0000 </r>
       <r>  -27.4794    1.0000 </r>
       <r>  -25.9259    1.0000 </r>
       <r>  -25.9197    1.0000 </r>
       <r>  -25.9197    1.0000 </r>
       <r>  -25.8583    1.0000 </r>
       <r>  -25.8571    1.0000 </r>
       <r>  -25.8571    1.0000 </r>
       <r>  -13.0482    1.0000 </r>
       <r>  -12.6900    1.0000 </r>
       <r>  -12.4630    1.0000 </r>
       <r>  -12.4630    1.0000 </r>
       <r>  -12.0757    1.0000 </r>
       <r>  -12.0757    1.0000 </r>
       <r>  -11.9532    1.0000 </r>
       <r>  -11.7755    1.0000 </r>
       <r>  -11.7755    1.0000 </r>
       <r>  -11.0682    1.0000 </r>
       <r>  -11.0682    1.0000 </r>
       <r>  -10.9276    1.0000 </r>
       <r>  -10.9059    1.0000 </r>
       <r>  -10.9059    1.0000 </r>
       <r>  -10.8583    1.0000 </r>
       <r>  -10.8583    1.0000 </r>
       <r>  -10.8389    1.0000 </r>
       <r>  -10.5822    1.0000 </r>
       <r>   -0.2278    1.0000 </r>
       <r>   -0.2278    1.0000 </r>
       <r>   -0.0616    1.0000 </r>
       <r>    0.1565    1.0000 </r>
       <r>    0.3445    1.0000 </r>
       <r>    0.3445    1.0000 </r>
       <r>    0.5120    1.0000 </r>
       <r>    0.9526    1.0000 </r>
       <r>    0.9526    1.0000 </r>
       <r>    1.2015    1.0000 </r>
       <r>    1.2015    1.0000 </r>
       <r>    1.4288    1.0000 </r>
       <r>    1.4615    1.0000 </r>
       <r>    1.6624    1.0000 </r>
       <r>    1.6624    1.0000 </r>
       <r>    2.5824    1.0000 </r>
       <r>    2.5824    1.0000 </r>
       <r>    2.9720    1.0000 </r>
       <r>    3.1065    1.0000 </r>
       <r>    3.1065    1.0000 </r>
       <r>    3.1859    1.0000 </r>
       <r>    3.3971    1.0000 </r>
       <r>    3.3971    1.0000 </r>
       <r>    3.4552    1.0000 </r>
       <r>    3.8470    1.0000 </r>
       <r>    3.8470    1.0000 </r>
       <r>    3.9525    1.0000 </r>
       <r>    6.6615    1.0110 </r>
       <r>    6.7220    1.1158 </r>
       <r>    6.7220    1.1151 </r>
       <r>    8.1684    0.0000 </r>
       <r>    8.1845    0.0000 </r>
       <r>    8.1845    0.0000 </r>
       <r>    9.3653    0.0000 </r>
       <r>    9.4242    0.0000 </r>
       <r>    9.4242    0.0000 </r>
       <r>    9.6657    0.0000 </r>
       <r>    9.6657    0.0000 </r>
       <r>    9.8867    0.0000 </r>
       <r>    9.9659    0.0000 </r>
       <r>    9.9659    0.0000 </r>
       <r>   10.9399    0.0000 </r>
       <r>   11.0120    0.0000 </r>
      </set>
      <set comment="kpoint 9">
       <r>  -51.1808    1.0000 </r>
       <r>  -49.6708    1.0000 </r>
       <r>  -49.6679    1.0000 </r>
       <r>  -28.9893    1.0000 </r>
       <r>  -28.9288    1.0000 </r>
       <r>  -28.9085    1.0000 </r>
       <r>  -27.4833    1.0000 </r>
       <r>  -27.4828    1.0000 </r>
       <r>  -27.4795    1.0000 </r>
       <r>  -25.9263    1.0000 </r>
       <r>  -25.9208    1.0000 </r>
       <r>  -25.9207    1.0000 </r>
       <r>  -25.8576    1.0000 </r>
       <r>  -25.8561    1.0000 </r>
       <r>  -25.8558    1.0000 </r>
       <r>  -13.0877    1.0000 </r>
       <r>  -12.7934    1.0000 </r>
       <r>  -12.4597    1.0000 </r>
       <r>  -12.3282    1.0000 </r>
       <r>  -12.1337    1.0000 </r>
       <r>  -12.1194    1.0000 </r>
       <r>  -11.9969    1.0000 </r>
       <r>  -11.8822    1.0000 </r>
       <r>  -11.7853    1.0000 </r>
       <r>  -11.0890    1.0000 </r>
       <r>  -10.9490    1.0000 </r>
       <r>  -10.9176    1.0000 </r>
       <r>  -10.9160    1.0000 </r>
       <r>  -10.8906    1.0000 </r>
       <r>  -10.8311    1.0000 </r>
       <r>  -10.7310    1.0000 </r>
       <r>  -10.7287    1.0000 </r>
       <r>  -10.5812    1.0000 </r>
       <r>   -0.3254    1.0000 </r>
       <r>   -0.1020    1.0000 </r>
       <r>    0.0421    1.0000 </r>
       <r>    0.1467    1.0000 </r>
       <r>    0.3322    1.0000 </r>
       <r>    0.3823    1.0000 </r>
       <r>    0.5687    1.0000 </r>
       <r>    0.7398    1.0000 </r>
       <r>    0.7554    1.0000 </r>
       <r>    1.1003    1.0000 </r>
       <r>    1.2696    1.0000 </r>
       <r>    1.3569    1.0000 </r>
       <r>    1.6378    1.0000 </r>
       <r>    1.6613    1.0000 </r>
       <r>    2.0957    1.0000 </r>
       <r>    2.4385    1.0000 </r>
       <r>    2.4538    1.0000 </r>
       <r>    2.7015    1.0000 </r>
       <r>    2.7245    1.0000 </r>
       <r>    2.9008    1.0000 </r>
       <r>    2.9664    1.0000 </r>
       <r>    3.3924    1.0000 </r>
       <r>    3.4345    1.0000 </r>
       <r>    3.5488    1.0000 </r>
       <r>    3.6799    1.0000 </r>
       <r>    3.7324    1.0000 </r>
       <r>    3.8880    1.0000 </r>
       <r>    6.4789    1.0044 </r>
       <r>    7.1832    0.5103 </r>
       <r>    7.1837    0.3859 </r>
       <r>    8.1016    0.0000 </r>
       <r>    8.1779    0.0000 </r>
       <r>    8.5423    0.0000 </r>
       <r>    9.1164    0.0000 </r>
       <r>    9.2883    0.0000 </r>
       <r>    9.3716    0.0000 </r>
       <r>    9.6798    0.0000 </r>
       <r>    9.8737    0.0000 </r>
       <r>    9.9294    0.0000 </r>
       <r>   10.1352    0.0000 </r>
       <r>   10.5476    0.0000 </r>
       <r>   11.0700    0.0000 </r>
       <r>   11.1677    0.0000 </r>
      </set>
      <set comment="kpoint 10">
       <r>  -51.1808    1.0000 </r>
       <r>  -49.6703    1.0000 </r>
       <r>  -49.6684    1.0000 </r>
       <r>  -28.9885    1.0000 </r>
       <r>  -28.9262    1.0000 </r>
       <r>  -28.9127    1.0000 </r>
       <r>  -27.4834    1.0000 </r>
       <r>  -27.4820    1.0000 </r>
       <r>  -27.4797    1.0000 </r>
       <r>  -25.9268    1.0000 </r>
       <r>  -25.9232    1.0000 </r>
       <r>  -25.9223    1.0000 </r>
       <r>  -25.8565    1.0000 </r>
       <r>  -25.8549    1.0000 </r>
       <r>  -25.8527    1.0000 </r>
       <r>  -13.1770    1.0000 </r>
       <r>  -12.8220    1.0000 </r>
       <r>  -12.4497    1.0000 </r>
       <r>  -12.4192    1.0000 </r>
       <r>  -12.1837    1.0000 </r>
       <r>  -12.1505    1.0000 </r>
       <r>  -12.0377    1.0000 </r>
       <r>  -11.9172    1.0000 </r>
       <r>  -11.8947    1.0000 </r>
       <r>  -10.9821    1.0000 </r>
       <r>  -10.9112    1.0000 </r>
       <r>  -10.9020    1.0000 </r>
       <r>  -10.8886    1.0000 </r>
       <r>  -10.8609    1.0000 </r>
       <r>  -10.6636    1.0000 </r>
       <r>  -10.6081    1.0000 </r>
       <r>  -10.5749    1.0000 </r>
       <r>  -10.5496    1.0000 </r>
       <r>   -0.1739    1.0000 </r>
       <r>   -0.1118    1.0000 </r>
       <r>   -0.0744    1.0000 </r>
       <r>    0.1147    1.0000 </r>
       <r>    0.1893    1.0000 </r>
       <r>    0.5942    1.0000 </r>
       <r>    0.6236    1.0000 </r>
       <r>    0.7662    1.0000 </r>
       <r>    0.7840    1.0000 </r>
       <r>    0.9276    1.0000 </r>
       <r>    1.3573    1.0000 </r>
       <r>    1.4472    1.0000 </r>
       <r>    1.6101    1.0000 </r>
       <r>    1.6622    1.0000 </r>
       <r>    1.9905    1.0000 </r>
       <r>    2.1082    1.0000 </r>
       <r>    2.2258    1.0000 </r>
       <r>    2.3895    1.0000 </r>
       <r>    2.4979    1.0000 </r>
       <r>    2.5869    1.0000 </r>
       <r>    2.8186    1.0000 </r>
       <r>    3.2668    1.0000 </r>
       <r>    3.3520    1.0000 </r>
       <r>    3.4345    1.0000 </r>
       <r>    3.4493    1.0000 </r>
       <r>    3.6825    1.0000 </r>
       <r>    3.7187    1.0000 </r>
       <r>    6.5622    1.0417 </r>
       <r>    7.9320   -0.0413 </r>
       <r>    7.9322   -0.0251 </r>
       <r>    8.2860    0.0000 </r>
       <r>    8.3533    0.0000 </r>
       <r>    8.6764    0.0000 </r>
       <r>    8.8538    0.0000 </r>
       <r>    8.8814    0.0000 </r>
       <r>    8.9244    0.0000 </r>
       <r>    9.6862    0.0000 </r>
       <r>   10.2780    0.0000 </r>
       <r>   10.4656    0.0000 </r>
       <r>   10.5000    0.0000 </r>
       <r>   11.0906    0.0000 </r>
       <r>   11.4419    0.0000 </r>
       <r>   11.5430    0.0000 </r>
      </set>
      <set comment="kpoint 11">
       <r>  -51.1808    1.0000 </r>
       <r>  -49.6699    1.0000 </r>
       <r>  -49.6688    1.0000 </r>
       <r>  -28.9880    1.0000 </r>
       <r>  -28.9245    1.0000 </r>
       <r>  -28.9153    1.0000 </r>
       <r>  -27.4835    1.0000 </r>
       <r>  -27.4816    1.0000 </r>
       <r>  -27.4798    1.0000 </r>
       <r>  -25.9265    1.0000 </r>
       <r>  -25.9236    1.0000 </r>
       <r>  -25.9227    1.0000 </r>
       <r>  -25.8559    1.0000 </r>
       <r>  -25.8547    1.0000 </r>
       <r>  -25.8526    1.0000 </r>
       <r>  -13.1940    1.0000 </r>
       <r>  -12.7344    1.0000 </r>
       <r>  -12.6515    1.0000 </r>
       <r>  -12.4414    1.0000 </r>
       <r>  -12.1772    1.0000 </r>
       <r>  -12.1718    1.0000 </r>
       <r>  -12.0571    1.0000 </r>
       <r>  -12.0190    1.0000 </r>
       <r>  -11.8344    1.0000 </r>
       <r>  -10.9316    1.0000 </r>
       <r>  -10.8947    1.0000 </r>
       <r>  -10.8724    1.0000 </r>
       <r>  -10.8603    1.0000 </r>
       <r>  -10.8251    1.0000 </r>
       <r>  -10.6083    1.0000 </r>
       <r>  -10.5775    1.0000 </r>
       <r>  -10.5457    1.0000 </r>
       <r>  -10.4759    1.0000 </r>
       <r>   -0.3537    1.0000 </r>
       <r>   -0.2714    1.0000 </r>
       <r>   -0.2409    1.0000 </r>
       <r>   -0.0569    1.0000 </r>
       <r>    0.3572    1.0000 </r>
       <r>    0.8969    1.0000 </r>
       <r>    0.9328    1.0000 </r>
       <r>    1.0230    1.0000 </r>
       <r>    1.0782    1.0000 </r>
       <r>    1.1644    1.0000 </r>
       <r>    1.1842    1.0000 </r>
       <r>    1.3399    1.0000 </r>
       <r>    1.4367    1.0000 </r>
       <r>    1.5990    1.0000 </r>
       <r>    1.6049    1.0000 </r>
       <r>    1.7432    1.0000 </r>
       <r>    2.3567    1.0000 </r>
       <r>    2.4700    1.0000 </r>
       <r>    2.6253    1.0000 </r>
       <r>    2.6759    1.0000 </r>
       <r>    2.7059    1.0000 </r>
       <r>    3.0262    1.0000 </r>
       <r>    3.0725    1.0000 </r>
       <r>    3.1481    1.0000 </r>
       <r>    3.2365    1.0000 </r>
       <r>    3.4444    1.0000 </r>
       <r>    3.8570    1.0000 </r>
       <r>    6.8936    1.0016 </r>
       <r>    8.1634    0.0000 </r>
       <r>    8.1805    0.0000 </r>
       <r>    8.1858    0.0000 </r>
       <r>    8.4832    0.0000 </r>
       <r>    8.4927    0.0000 </r>
       <r>    8.6176    0.0000 </r>
       <r>    8.6359    0.0000 </r>
       <r>    9.2207    0.0000 </r>
       <r>    9.9634    0.0000 </r>
       <r>   10.5056    0.0000 </r>
       <r>   11.0662    0.0000 </r>
       <r>   11.0810    0.0000 </r>
       <r>   11.1806    0.0000 </r>
       <r>   11.3450    0.0000 </r>
       <r>   11.3503    0.0000 </r>
      </set>
      <set comment="kpoint 12">
       <r>  -51.1807    1.0000 </r>
       <r>  -49.6703    1.0000 </r>
       <r>  -49.6684    1.0000 </r>
       <r>  -28.9884    1.0000 </r>
       <r>  -28.9269    1.0000 </r>
       <r>  -28.9121    1.0000 </r>
       <r>  -27.4834    1.0000 </r>
       <r>  -27.4820    1.0000 </r>
       <r>  -27.4797    1.0000 </r>
       <r>  -25.9261    1.0000 </r>
       <r>  -25.9221    1.0000 </r>
       <r>  -25.9216    1.0000 </r>
       <r>  -25.8569    1.0000 </r>
       <r>  -25.8556    1.0000 </r>
       <r>  -25.8541    1.0000 </r>
       <r>  -13.0915    1.0000 </r>
       <r>  -12.9118    1.0000 </r>
       <r>  -12.4506    1.0000 </r>
       <r>  -12.4409    1.0000 </r>
       <r>  -12.1544    1.0000 </r>
       <r>  -12.0939    1.0000 </r>
       <r>  -12.0439    1.0000 </r>
       <r>  -12.0355    1.0000 </r>
       <r>  -11.8799    1.0000 </r>
       <r>  -10.9594    1.0000 </r>
       <r>  -10.9497    1.0000 </r>
       <r>  -10.8908    1.0000 </r>
       <r>  -10.8452    1.0000 </r>
       <r>  -10.7345    1.0000 </r>
       <r>  -10.6885    1.0000 </r>
       <r>  -10.6666    1.0000 </r>
       <r>  -10.6385    1.0000 </r>
       <r>  -10.5094    1.0000 </r>
       <r>   -0.4864    1.0000 </r>
       <r>   -0.3308    1.0000 </r>
       <r>   -0.2063    1.0000 </r>
       <r>   -0.0922    1.0000 </r>
       <r>    0.5591    1.0000 </r>
       <r>    0.7378    1.0000 </r>
       <r>    0.7556    1.0000 </r>
       <r>    0.9698    1.0000 </r>
       <r>    1.1357    1.0000 </r>
       <r>    1.2481    1.0000 </r>
       <r>    1.3159    1.0000 </r>
       <r>    1.4104    1.0000 </r>
       <r>    1.6220    1.0000 </r>
       <r>    1.6705    1.0000 </r>
       <r>    1.7719    1.0000 </r>
       <r>    1.8636    1.0000 </r>
       <r>    2.2684    1.0000 </r>
       <r>    2.5319    1.0000 </r>
       <r>    2.7186    1.0000 </r>
       <r>    2.9478    1.0000 </r>
       <r>    2.9715    1.0000 </r>
       <r>    3.0229    1.0000 </r>
       <r>    3.0689    1.0000 </r>
       <r>    3.1791    1.0000 </r>
       <r>    3.1946    1.0000 </r>
       <r>    3.2254    1.0000 </r>
       <r>    3.9594    1.0000 </r>
       <r>    7.3268    0.5331 </r>
       <r>    7.4122    0.0153 </r>
       <r>    7.4884    0.0002 </r>
       <r>    7.6366    0.0000 </r>
       <r>    8.6653    0.0000 </r>
       <r>    8.6807    0.0000 </r>
       <r>    8.9236    0.0000 </r>
       <r>    8.9282    0.0000 </r>
       <r>    9.4489    0.0000 </r>
       <r>   10.3452    0.0000 </r>
       <r>   10.5201    0.0000 </r>
       <r>   10.5890    0.0000 </r>
       <r>   10.6154    0.0000 </r>
       <r>   10.7949    0.0000 </r>
       <r>   11.0733    0.0000 </r>
       <r>   11.3897    0.0000 </r>
      </set>
      <set comment="kpoint 13">
       <r>  -51.1808    1.0000 </r>
       <r>  -49.6708    1.0000 </r>
       <r>  -49.6679    1.0000 </r>
       <r>  -28.9893    1.0000 </r>
       <r>  -28.9289    1.0000 </r>
       <r>  -28.9084    1.0000 </r>
       <r>  -27.4833    1.0000 </r>
       <r>  -27.4828    1.0000 </r>
       <r>  -27.4795    1.0000 </r>
       <r>  -25.9260    1.0000 </r>
       <r>  -25.9208    1.0000 </r>
       <r>  -25.9201    1.0000 </r>
       <r>  -25.8579    1.0000 </r>
       <r>  -25.8569    1.0000 </r>
       <r>  -25.8556    1.0000 </r>
       <r>  -13.0492    1.0000 </r>
       <r>  -12.8347    1.0000 </r>
       <r>  -12.4610    1.0000 </r>
       <r>  -12.3820    1.0000 </r>
       <r>  -12.0725    1.0000 </r>
       <r>  -12.0542    1.0000 </r>
       <r>  -11.9814    1.0000 </r>
       <r>  -11.9140    1.0000 </r>
       <r>  -11.8696    1.0000 </r>
       <r>  -11.0531    1.0000 </r>
       <r>  -10.9606    1.0000 </r>
       <r>  -10.9179    1.0000 </r>
       <r>  -10.8987    1.0000 </r>
       <r>  -10.8620    1.0000 </r>
       <r>  -10.8227    1.0000 </r>
       <r>  -10.7751    1.0000 </r>
       <r>  -10.7325    1.0000 </r>
       <r>  -10.5769    1.0000 </r>
       <r>   -0.3446    1.0000 </r>
       <r>   -0.3256    1.0000 </r>
       <r>    0.0034    1.0000 </r>
       <r>    0.0782    1.0000 </r>
       <r>    0.3876    1.0000 </r>
       <r>    0.4674    1.0000 </r>
       <r>    0.6758    1.0000 </r>
       <r>    0.7757    1.0000 </r>
       <r>    1.0560    1.0000 </r>
       <r>    1.1276    1.0000 </r>
       <r>    1.2748    1.0000 </r>
       <r>    1.3192    1.0000 </r>
       <r>    1.6380    1.0000 </r>
       <r>    1.6504    1.0000 </r>
       <r>    1.9446    1.0000 </r>
       <r>    2.2286    1.0000 </r>
       <r>    2.4851    1.0000 </r>
       <r>    2.8933    1.0000 </r>
       <r>    2.9248    1.0000 </r>
       <r>    2.9922    1.0000 </r>
       <r>    3.0176    1.0000 </r>
       <r>    3.2077    1.0000 </r>
       <r>    3.3088    1.0000 </r>
       <r>    3.4054    1.0000 </r>
       <r>    3.6275    1.0000 </r>
       <r>    3.6435    1.0000 </r>
       <r>    3.9865    1.0000 </r>
       <r>    6.8125    1.0122 </r>
       <r>    6.9175    0.9500 </r>
       <r>    7.1171    0.4717 </r>
       <r>    7.7796    0.0000 </r>
       <r>    8.4662    0.0000 </r>
       <r>    8.4698    0.0000 </r>
       <r>    9.1987    0.0000 </r>
       <r>    9.2000    0.0000 </r>
       <r>    9.5344    0.0000 </r>
       <r>    9.8749    0.0000 </r>
       <r>    9.9281    0.0000 </r>
       <r>    9.9352    0.0000 </r>
       <r>   10.2763    0.0000 </r>
       <r>   10.3541    0.0000 </r>
       <r>   10.8425    0.0000 </r>
       <r>   11.3144    0.0000 </r>
      </set>
      <set comment="kpoint 14">
       <r>  -51.1808    1.0000 </r>
       <r>  -49.6705    1.0000 </r>
       <r>  -49.6683    1.0000 </r>
       <r>  -28.9887    1.0000 </r>
       <r>  -28.9273    1.0000 </r>
       <r>  -28.9113    1.0000 </r>
       <r>  -27.4833    1.0000 </r>
       <r>  -27.4823    1.0000 </r>
       <r>  -27.4797    1.0000 </r>
       <r>  -25.9264    1.0000 </r>
       <r>  -25.9225    1.0000 </r>
       <r>  -25.9212    1.0000 </r>
       <r>  -25.8571    1.0000 </r>
       <r>  -25.8553    1.0000 </r>
       <r>  -25.8540    1.0000 </r>
[...]
       <r>    8.8702    0.0000 </r>
       <r>    8.9838    0.0000 </r>
       <r>    9.9785    0.0000 </r>
       <r>   10.5227    0.0000 </r>
       <r>   11.1431    0.0000 </r>
       <r>   11.1849    0.0000 </r>
       <r>   11.3523    0.0000 </r>
       <r>   11.4500    0.0000 </r>
       <r>   11.5880    0.0000 </r>
      </set>
      <set comment="kpoint 24">
       <r>  -51.1808    1.0000 </r>
       <r>  -49.6694    1.0000 </r>
       <r>  -49.6694    1.0000 </r>
       <r>  -28.9880    1.0000 </r>
       <r>  -28.9206    1.0000 </r>
       <r>  -28.9206    1.0000 </r>
       <r>  -27.4824    1.0000 </r>
       <r>  -27.4824    1.0000 </r>
       <r>  -27.4794    1.0000 </r>
       <r>  -25.9241    1.0000 </r>
       <r>  -25.9241    1.0000 </r>
       <r>  -25.9207    1.0000 </r>
       <r>  -25.8551    1.0000 </r>
       <r>  -25.8551    1.0000 </r>
       <r>  -25.8549    1.0000 </r>
       <r>  -13.0214    1.0000 </r>
       <r>  -13.0214    1.0000 </r>
       <r>  -12.9003    1.0000 </r>
       <r>  -12.3931    1.0000 </r>
       <r>  -12.0812    1.0000 </r>
       <r>  -12.0812    1.0000 </r>
       <r>  -11.9291    1.0000 </r>
       <r>  -11.9291    1.0000 </r>
       <r>  -11.8848    1.0000 </r>
       <r>  -10.9658    1.0000 </r>
       <r>  -10.9582    1.0000 </r>
       <r>  -10.9582    1.0000 </r>
       <r>  -10.7021    1.0000 </r>
       <r>  -10.7021    1.0000 </r>
       <r>  -10.6806    1.0000 </r>
       <r>  -10.5459    1.0000 </r>
       <r>  -10.5459    1.0000 </r>
       <r>  -10.5285    1.0000 </r>
       <r>   -0.5764    1.0000 </r>
       <r>   -0.1967    1.0000 </r>
       <r>   -0.1967    1.0000 </r>
       <r>    0.3447    1.0000 </r>
       <r>    0.5336    1.0000 </r>
       <r>    0.5336    1.0000 </r>
       <r>    0.9061    1.0000 </r>
       <r>    0.9061    1.0000 </r>
       <r>    1.0805    1.0000 </r>
       <r>    1.2196    1.0000 </r>
       <r>    1.2196    1.0000 </r>
       <r>    1.3066    1.0000 </r>
       <r>    1.3117    1.0000 </r>
       <r>    1.6404    1.0000 </r>
       <r>    1.6404    1.0000 </r>
       <r>    2.2300    1.0000 </r>
       <r>    2.2671    1.0000 </r>
       <r>    2.2671    1.0000 </r>
       <r>    2.8373    1.0000 </r>
       <r>    2.8477    1.0000 </r>
       <r>    2.8477    1.0000 </r>
       <r>    2.9591    1.0000 </r>
       <r>    2.9591    1.0000 </r>
       <r>    3.0235    1.0000 </r>
       <r>    3.0936    1.0000 </r>
       <r>    3.1536    1.0000 </r>
       <r>    3.1536    1.0000 </r>
       <r>    7.5673   -0.0427 </r>
       <r>    7.5751    0.0000 </r>
       <r>    7.5751    0.0000 </r>
       <r>    8.6831    0.0000 </r>
       <r>    8.6831    0.0000 </r>
       <r>    8.6892    0.0000 </r>
       <r>    8.8252    0.0000 </r>
       <r>    8.8434    0.0000 </r>
       <r>    8.8434    0.0000 </r>
       <r>   10.5276    0.0000 </r>
       <r>   10.5276    0.0000 </r>
       <r>   11.4735    0.0000 </r>
       <r>   11.4913    0.0000 </r>
       <r>   11.5116    0.0000 </r>
       <r>   11.5409    0.0000 </r>
       <r>   11.5462    0.0000 </r>
      </set>
     </set>
    </set>
   </array>
  </eigenvalues>
  <separator name="orbital magnetization" >
   <v name="MAGDIPOLOUT">      0.00000000      0.00000000      0.00000000</v>
  </separator>
  <dos>
   <i name="efermi">      7.19797327 </i>
   <total>
    <array>
     <dimension dim="1">gridpoints</dimension>
     <dimension dim="2">spin</dimension>
     <field>energy</field>
     <field>total</field>
     <field>integrated</field>
     <set>
      <set comment="spin 1">
       <r>   -54.3274     0.0000     0.0000 </r>
       <r>   -54.0966     0.0000     0.0000 </r>
       <r>   -53.8659     0.0000     0.0000 </r>
       <r>   -53.6351     0.0000     0.0000 </r>
       <r>   -53.4044     0.0000     0.0000 </r>
       <r>   -53.1736     0.0000     0.0000 </r>
       <r>   -52.9429     0.0000     0.0000 </r>
       <r>   -52.7121     0.0000     0.0000 </r>
       <r>   -52.4814     0.0000     0.0000 </r>
       <r>   -52.2506     0.0000     0.0000 </r>
       <r>   -52.0199     0.0000     0.0000 </r>
       <r>   -51.7891     0.0000     0.0000 </r>
       <r>   -51.5584     0.0000     0.0000 </r>
       <r>   -51.3276     0.0000     0.0000 </r>
       <r>   -51.0969     0.0000     2.0000 </r>
       <r>   -50.8661     0.0000     2.0000 </r>
       <r>   -50.6353     0.0000     2.0000 </r>
       <r>   -50.4046     0.0000     2.0000 </r>
       <r>   -50.1738     0.0000     2.0000 </r>
       <r>   -49.9431     0.0000     2.0000 </r>
       <r>   -49.7123     0.0000     2.0000 </r>
       <r>   -49.4816     0.0000     6.0000 </r>
       <r>   -49.2508     0.0000     6.0000 </r>
       <r>   -49.0201     0.0000     6.0000 </r>
       <r>   -48.7893     0.0000     6.0000 </r>
       <r>   -48.5586     0.0000     6.0000 </r>
       <r>   -48.3278     0.0000     6.0000 </r>
       <r>   -48.0971     0.0000     6.0000 </r>
       <r>   -47.8663     0.0000     6.0000 </r>
       <r>   -47.6356     0.0000     6.0000 </r>
       <r>   -47.4048     0.0000     6.0000 </r>
       <r>   -47.1741     0.0000     6.0000 </r>
       <r>   -46.9433     0.0000     6.0000 </r>
       <r>   -46.7126     0.0000     6.0000 </r>
       <r>   -46.4818     0.0000     6.0000 </r>
       <r>   -46.2511     0.0000     6.0000 </r>
       <r>   -46.0203     0.0000     6.0000 </r>
       <r>   -45.7896     0.0000     6.0000 </r>
       <r>   -45.5588     0.0000     6.0000 </r>
       <r>   -45.3281     0.0000     6.0000 </r>
       <r>   -45.0973     0.0000     6.0000 </r>
       <r>   -44.8666     0.0000     6.0000 </r>
       <r>   -44.6358     0.0000     6.0000 </r>
       <r>   -44.4050     0.0000     6.0000 </r>
       <r>   -44.1743     0.0000     6.0000 </r>
       <r>   -43.9435     0.0000     6.0000 </r>
       <r>   -43.7128     0.0000     6.0000 </r>
       <r>   -43.4820     0.0000     6.0000 </r>
       <r>   -43.2513     0.0000     6.0000 </r>
       <r>   -43.0205     0.0000     6.0000 </r>
       <r>   -42.7898     0.0000     6.0000 </r>
       <r>   -42.5590     0.0000     6.0000 </r>
       <r>   -42.3283     0.0000     6.0000 </r>
       <r>   -42.0975     0.0000     6.0000 </r>
       <r>   -41.8668     0.0000     6.0000 </r>
       <r>   -41.6360     0.0000     6.0000 </r>
       <r>   -41.4053     0.0000     6.0000 </r>
       <r>   -41.1745     0.0000     6.0000 </r>
       <r>   -40.9438     0.0000     6.0000 </r>
       <r>   -40.7130     0.0000     6.0000 </r>
       <r>   -40.4823     0.0000     6.0000 </r>
       <r>   -40.2515     0.0000     6.0000 </r>
       <r>   -40.0208     0.0000     6.0000 </r>
       <r>   -39.7900     0.0000     6.0000 </r>
       <r>   -39.5593     0.0000     6.0000 </r>
       <r>   -39.3285     0.0000     6.0000 </r>
       <r>   -39.0978     0.0000     6.0000 </r>
       <r>   -38.8670     0.0000     6.0000 </r>
       <r>   -38.6362     0.0000     6.0000 </r>
       <r>   -38.4055     0.0000     6.0000 </r>
       <r>   -38.1747     0.0000     6.0000 </r>
       <r>   -37.9440     0.0000     6.0000 </r>
       <r>   -37.7132     0.0000     6.0000 </r>
       <r>   -37.4825     0.0000     6.0000 </r>
       <r>   -37.2517     0.0000     6.0000 </r>
       <r>   -37.0210     0.0000     6.0000 </r>
       <r>   -36.7902     0.0000     6.0000 </r>
       <r>   -36.5595     0.0000     6.0000 </r>
       <r>   -36.3287     0.0000     6.0000 </r>
       <r>   -36.0980     0.0000     6.0000 </r>
       <r>   -35.8672     0.0000     6.0000 </r>
       <r>   -35.6365     0.0000     6.0000 </r>
       <r>   -35.4057     0.0000     6.0000 </r>
       <r>   -35.1750     0.0000     6.0000 </r>
       <r>   -34.9442     0.0000     6.0000 </r>
       <r>   -34.7135     0.0000     6.0000 </r>
       <r>   -34.4827     0.0000     6.0000 </r>
       <r>   -34.2520     0.0000     6.0000 </r>
       <r>   -34.0212     0.0000     6.0000 </r>
       <r>   -33.7905     0.0000     6.0000 </r>
       <r>   -33.5597     0.0000     6.0000 </r>
       <r>   -33.3290     0.0000     6.0000 </r>
       <r>   -33.0982     0.0000     6.0000 </r>
       <r>   -32.8674     0.0000     6.0000 </r>
       <r>   -32.6367     0.0000     6.0000 </r>
       <r>   -32.4059     0.0000     6.0000 </r>
       <r>   -32.1752     0.0000     6.0000 </r>
       <r>   -31.9444     0.0000     6.0000 </r>
       <r>   -31.7137     0.0000     6.0000 </r>
       <r>   -31.4829     0.0000     6.0000 </r>
       <r>   -31.2522     0.0000     6.0000 </r>
       <r>   -31.0214     0.0000     6.0000 </r>
       <r>   -30.7907     0.0000     6.0000 </r>
       <r>   -30.5599     0.0000     6.0000 </r>
       <r>   -30.3292     0.0000     6.0000 </r>
       <r>   -30.0984     0.0000     6.0000 </r>
       <r>   -29.8677     0.0000     6.0000 </r>
       <r>   -29.6369     0.0000     6.0000 </r>
       <r>   -29.4062     0.0000     6.0000 </r>
       <r>   -29.1754     0.0000     6.0000 </r>
       <r>   -28.9447     0.0000     8.0000 </r>
       <r>   -28.7139     0.0000    12.0000 </r>
       <r>   -28.4832     0.0000    12.0000 </r>
       <r>   -28.2524     0.0000    12.0000 </r>
       <r>   -28.0217     0.0000    12.0000 </r>
       <r>   -27.7909     0.0000    12.0000 </r>
       <r>   -27.5602     0.0000    12.0000 </r>
       <r>   -27.3294     0.0000    18.0000 </r>
       <r>   -27.0986     0.0000    18.0000 </r>
       <r>   -26.8679     0.0000    18.0000 </r>
       <r>   -26.6371     0.0000    18.0000 </r>
       <r>   -26.4064     0.0000    18.0000 </r>
       <r>   -26.1756     0.0000    18.0000 </r>
       <r>   -25.9449     0.0000    18.0000 </r>
       <r>   -25.7141     0.0000    30.0000 </r>
       <r>   -25.4834     0.0000    30.0000 </r>
       <r>   -25.2526     0.0000    30.0000 </r>
       <r>   -25.0219     0.0000    30.0000 </r>
       <r>   -24.7911     0.0000    30.0000 </r>
       <r>   -24.5604     0.0000    30.0000 </r>
       <r>   -24.3296     0.0000    30.0000 </r>
       <r>   -24.0989     0.0000    30.0000 </r>
       <r>   -23.8681     0.0000    30.0000 </r>
       <r>   -23.6374     0.0000    30.0000 </r>
       <r>   -23.4066     0.0000    30.0000 </r>
       <r>   -23.1759     0.0000    30.0000 </r>
       <r>   -22.9451     0.0000    30.0000 </r>
       <r>   -22.7144     0.0000    30.0000 </r>
       <r>   -22.4836     0.0000    30.0000 </r>
       <r>   -22.2529     0.0000    30.0000 </r>
       <r>   -22.0221     0.0000    30.0000 </r>
       <r>   -21.7914     0.0000    30.0000 </r>
       <r>   -21.5606     0.0000    30.0000 </r>
       <r>   -21.3299     0.0000    30.0000 </r>
       <r>   -21.0991     0.0000    30.0000 </r>
       <r>   -20.8683     0.0000    30.0000 </r>
       <r>   -20.6376     0.0000    30.0000 </r>
       <r>   -20.4068     0.0000    30.0000 </r>
       <r>   -20.1761     0.0000    30.0000 </r>
       <r>   -19.9453     0.0000    30.0000 </r>
       <r>   -19.7146     0.0000    30.0000 </r>
       <r>   -19.4838     0.0000    30.0000 </r>
       <r>   -19.2531     0.0000    30.0000 </r>
       <r>   -19.0223     0.0000    30.0000 </r>
       <r>   -18.7916     0.0000    30.0000 </r>
       <r>   -18.5608     0.0000    30.0000 </r>
       <r>   -18.3301     0.0000    30.0000 </r>
       <r>   -18.0993     0.0000    30.0000 </r>
       <r>   -17.8686     0.0000    30.0000 </r>
       <r>   -17.6378     0.0000    30.0000 </r>
       <r>   -17.4071     0.0000    30.0000 </r>
       <r>   -17.1763     0.0000    30.0000 </r>
       <r>   -16.9456     0.0000    30.0000 </r>
       <r>   -16.7148     0.0000    30.0000 </r>
       <r>   -16.4841     0.0000    30.0000 </r>
       <r>   -16.2533     0.0000    30.0000 </r>
       <r>   -16.0226     0.0000    30.0000 </r>
       <r>   -15.7918     0.0000    30.0000 </r>
       <r>   -15.5611     0.0000    30.0000 </r>
       <r>   -15.3303     0.0000    30.0000 </r>
       <r>   -15.0995     0.0000    30.0000 </r>
       <r>   -14.8688     0.0000    30.0000 </r>
       <r>   -14.6380     0.0000    30.0000 </r>
       <r>   -14.4073     0.0000    30.0000 </r>
       <r>   -14.1765     0.0000    30.0000 </r>
       <r>   -13.9458     0.0000    30.0000 </r>
       <r>   -13.7150     0.0000    30.0000 </r>
       <r>   -13.4843     0.0000    30.0000 </r>
       <r>   -13.2535     0.4920    30.0056 </r>
       <r>   -13.0228     5.0233    31.8728 </r>
       <r>   -12.7920     6.8968    33.6242 </r>
       <r>   -12.5613     5.3973    35.0543 </r>
       <r>   -12.3305     9.5619    37.8392 </r>
       <r>   -12.0998    26.7437    41.0225 </r>
       <r>   -11.8690    14.3350    46.9772 </r>
       <r>   -11.6383     0.0000    48.0000 </r>
       <r>   -11.4075     0.0000    48.0000 </r>
       <r>   -11.1768     0.0000    48.0000 </r>
       <r>   -10.9460    32.8605    50.2168 </r>
       <r>   -10.7153    27.1568    58.8756 </r>
       <r>   -10.4845    11.0264    65.8403 </r>
       <r>   -10.2538     0.0000    66.0000 </r>
       <r>   -10.0230     0.0000    66.0000 </r>
       <r>    -9.7923     0.0000    66.0000 </r>
       <r>    -9.5615     0.0000    66.0000 </r>
       <r>    -9.3307     0.0000    66.0000 </r>
       <r>    -9.1000     0.0000    66.0000 </r>
       <r>    -8.8692     0.0000    66.0000 </r>
       <r>    -8.6385     0.0000    66.0000 </r>
       <r>    -8.4077     0.0000    66.0000 </r>
       <r>    -8.1770     0.0000    66.0000 </r>
       <r>    -7.9462     0.0000    66.0000 </r>
       <r>    -7.7155     0.0000    66.0000 </r>
       <r>    -7.4847     0.0000    66.0000 </r>
       <r>    -7.2540     0.0000    66.0000 </r>
       <r>    -7.0232     0.0000    66.0000 </r>
       <r>    -6.7925     0.0000    66.0000 </r>
       <r>    -6.5617     0.0000    66.0000 </r>
       <r>    -6.3310     0.0000    66.0000 </r>
       <r>    -6.1002     0.0000    66.0000 </r>
       <r>    -5.8695     0.0000    66.0000 </r>
       <r>    -5.6387     0.0000    66.0000 </r>
       <r>    -5.4080     0.0000    66.0000 </r>
       <r>    -5.1772     0.0000    66.0000 </r>
       <r>    -4.9465     0.0000    66.0000 </r>
       <r>    -4.7157     0.0000    66.0000 </r>
       <r>    -4.4850     0.0000    66.0000 </r>
       <r>    -4.2542     0.0000    66.0000 </r>
       <r>    -4.0235     0.0000    66.0000 </r>
       <r>    -3.7927     0.0000    66.0000 </r>
       <r>    -3.5619     0.0000    66.0000 </r>
       <r>    -3.3312     0.0000    66.0000 </r>
       <r>    -3.1004     0.0000    66.0000 </r>
       <r>    -2.8697     0.0000    66.0000 </r>
       <r>    -2.6389     0.0000    66.0000 </r>
       <r>    -2.4082     0.0000    66.0000 </r>
       <r>    -2.1774     0.0000    66.0000 </r>
       <r>    -1.9467     0.0000    66.0000 </r>
       <r>    -1.7159     0.0000    66.0000 </r>
       <r>    -1.4852     0.0000    66.0000 </r>
       <r>    -1.2544     0.0000    66.0000 </r>
       <r>    -1.0237     0.0000    66.0000 </r>
       <r>    -0.7929     0.0000    66.0000 </r>
       <r>    -0.5622     0.0271    66.0001 </r>
       <r>    -0.3314    10.1234    67.4694 </r>
       <r>    -0.1007    13.5559    70.9324 </r>
       <r>     0.1301     8.8444    73.4896 </r>
       <r>     0.3608     9.5746    75.3979 </r>
       <r>     0.5916    11.3578    77.2301 </r>
       <r>     0.8223    13.8258    80.2749 </r>
       <r>     1.0531    16.8247    83.7802 </r>
       <r>     1.2838    17.2608    86.9861 </r>
       <r>     1.5146    14.6509    90.2165 </r>
       <r>     1.7453     8.6807    94.5992 </r>
       <r>     1.9761     7.6568    96.5145 </r>
       <r>     2.2069     6.0104    97.7707 </r>
       <r>     2.4376     9.2330   100.5677 </r>
       <r>     2.6684    11.6750   102.7309 </r>
       <r>     2.8991    19.6898   106.4094 </r>
       <r>     3.1299    16.7332   110.9314 </r>
       <r>     3.3606    14.6022   114.9191 </r>
       <r>     3.5914     7.0562   117.2801 </r>
       <r>     3.8221     9.7536   118.9629 </r>
       <r>     4.0529     0.0000   120.0000 </r>
       <r>     4.2836     0.0000   120.0000 </r>
       <r>     4.5144     0.0000   120.0000 </r>
       <r>     4.7451     0.0000   120.0000 </r>
       <r>     4.9759     0.0000   120.0000 </r>
       <r>     5.2066     0.0000   120.0000 </r>
       <r>     5.4374     0.0000   120.0000 </r>
       <r>     5.6681     0.0000   120.0000 </r>
       <r>     5.8989     0.0000   120.0000 </r>
       <r>     6.1296     0.0000   120.0000 </r>
       <r>     6.3604     0.0000   120.0000 </r>
       <r>     6.5911     1.2164   120.0978 </r>
       <r>     6.8219     3.3301   120.6121 </r>
       <r>     7.0526     3.6134   121.4927 </r>
       <r>     7.2834     3.6205   122.3045 </r>
       <r>     7.5141     3.6584   123.1471 </r>
       <r>     7.7449     4.9175   124.1547 </r>
       <r>     7.9756     6.6314   125.5041 </r>
       <r>     8.2064     8.1000   127.2489 </r>
       <r>     8.4372    11.7762   129.1456 </r>
       <r>     8.6679    17.1610   131.9211 </r>
       <r>     8.8987     7.7706   134.4253 </r>
       <r>     9.1294     6.8831   136.1652 </r>
       <r>     9.3602     3.7055   137.5901 </r>
       <r>     9.5909     0.6784   138.0402 </r>
       <r>     9.8217     3.4508   138.4548 </r>
       <r>    10.0524     7.3184   139.7601 </r>
       <r>    10.2832     6.0413   141.4158 </r>
       <r>    10.5139     7.6721   143.2429 </r>
       <r>    10.7447     4.8332   144.3729 </r>
       <r>    10.9754     8.6362   145.8566 </r>
       <r>    11.2062     9.3523   148.0461 </r>
       <r>    11.4369    11.1086   150.4368 </r>
       <r>    11.6677     0.8465   151.9788 </r>
       <r>    11.8984     0.0000   152.0000 </r>
       <r>    12.1292     0.0000   152.0000 </r>
       <r>    12.3599     0.0000   152.0000 </r>
       <r>    12.5907     0.0000   152.0000 </r>
       <r>    12.8214     0.0000   152.0000 </r>
       <r>    13.0522     0.0000   152.0000 </r>
       <r>    13.2829     0.0000   152.0000 </r>
       <r>    13.5137     0.0000   152.0000 </r>
       <r>    13.7444     0.0000   152.0000 </r>
       <r>    13.9752     0.0000   152.0000 </r>
       <r>    14.2060     0.0000   152.0000 </r>
       <r>    14.4367     0.0000   152.0000 </r>
       <r>    14.6675     0.0000   152.0000 </r>
       <r>    14.8982     0.0000   152.0000 </r>
      </set>
     </set>
    </array>
   </total>
  </dos>
 </calculation>
 <structure name="finalpos" >
  <crystal>
   <varray name="basis" >
    <v>      -4.01863406      -4.01863406       0.00000000 </v>
    <v>       4.01863406       0.00000000      -4.01863406 </v>
    <v>       4.02440453      -4.02440453       4.02440453 </v>
   </varray>
   <i name="volume">    194.97539390 </i>
   <varray name="rec_basis" >
    <v>      -0.08294692      -0.16589385      -0.08294692 </v>
    <v>       0.08294692      -0.08294692      -0.16589385 </v>
    <v>       0.08282799      -0.08282799       0.08282799 </v>
   </varray>
  </crystal>
  <varray name="positions" >
   <v>       0.00000000       0.00000000       0.49518917 </v>
   <v>       0.66666667       0.33333333       0.83814416 </v>
   <v>       0.83333333       0.16666667       0.66666667 </v>
   <v>       0.66495985       0.83247993       0.33158445 </v>
   <v>       0.83333333       0.66666667       0.66666667 </v>
   <v>       0.49914659       0.50085341       0.00174888 </v>
   <v>       0.33333333       0.16666667       0.66666667 </v>
   <v>       0.49914659       0.99829318       0.00174888 </v>
   <v>       0.16752007       0.83247993       0.33158445 </v>
   <v>       0.00170682       0.50085341       0.00174888 </v>
   <v>       0.16752007       0.33504015       0.33158445 </v>
   <v>       0.33333333       0.66666667       0.66666667 </v>
   <v>       0.00000000       0.00000000       0.00501523 </v>
   <v>       0.66666667       0.33333333       0.32831810 </v>
   <v>       0.33333333       0.66666667       0.16666667 </v>
  </varray>
 </structure>
</modeling>
