 running on  100 total cores
 distrk:  each k-point on  100 cores,    1 groups
 distr:  one band on   25 cores,    4 groups
 using from now: INCAR     
 vasp.5.4.4.18Apr17-6-g9f103f2a35 (build May 23 2017 16:08:52) complex          
  
 POSCAR found :  2 types and      80 ions
 scaLAPACK will be used

 ----------------------------------------------------------------------------- 
|                                                                             |
|           W    W    AA    RRRRR   N    N  II  N    N   GGGG   !!!           |
|           W    W   A  A   R    R  NN   N  II  NN   N  G    G  !!!           |
|           W    W  A    A  R    R  N N  N  II  N N  N  G       !!!           |
|           W WW W  AAAAAA  RRRRR   N  N N  II  N  N N  G  GGG   !            |
|           WW  WW  A    A  R   R   N   NN  II  N   NN  G    G                |
|           W    W  A    A  R    R  N    N  II  N    N   GGGG   !!!           |
|                                                                             |
|      For optimal performance we recommend to set                            |
|        NCORE= 4 - approx SQRT( number of cores)                             |
|      NCORE specifies how many cores store one orbital (NPAR=cpu/NCORE).     |
|      This setting can  greatly improve the performance of VASP for DFT.     |
|      The default,   NCORE=1            might be grossly inefficient         |
|      on modern multi-core architectures or massively parallel machines.     |
|      Do your own testing !!!!                                               |
|      Unfortunately you need to use the default for GW and RPA calculations. |
|      (for HF NCORE is supported but not extensively tested yet)             |
|                                                                             |
 ----------------------------------------------------------------------------- 


 ----------------------------------------------------------------------------- 
|                                                                             |
|  ADVICE TO THIS USER RUNNING 'VASP/VAMP'   (HEAR YOUR MASTER'S VOICE ...):  |
|                                                                             |
|      You have a (more or less) 'large supercell' and for larger cells       |
|      it might be more efficient to use real space projection opertators     |
|      So try LREAL= Auto  in the INCAR   file.                               |
|      Mind:          For very  accurate calculation you might also keep the  |
|      reciprocal projection scheme          (i.e. LREAL=.FALSE.)             |
|                                                                             |
 ----------------------------------------------------------------------------- 

 LDA part: xc-table for Pade appr. of Perdew
 POSCAR, INCAR and KPOINTS ok, starting setup
 FFT: planning ...
 WAVECAR not read
 entering main loop
       N       E                     dE             d eps       ncg     rms          rms(c)
DAV:   1     0.426774548775E+04    0.42677E+04   -0.33136E+05 10192   0.159E+03
DAV:   2    -0.548361388633E+03   -0.48161E+04   -0.46439E+04 12152   0.435E+02
DAV:   3    -0.925193696320E+03   -0.37683E+03   -0.37252E+03 12024   0.104E+02
DAV:   4    -0.934227530978E+03   -0.90338E+01   -0.89581E+01 11728   0.165E+01
DAV:   5    -0.934534204558E+03   -0.30667E+00   -0.30542E+00 11936   0.251E+00    0.272E+02
DAV:   6    -0.801360567662E+03    0.13317E+03   -0.77091E+02 11776   0.420E+01    0.222E+02
DAV:   7    -0.799282339028E+03    0.20782E+01   -0.61667E+01 11760   0.150E+01    0.100E+02
DAV:   8    -0.799166147369E+03    0.11619E+00   -0.56730E+00 13072   0.396E+00    0.158E+01
DAV:   9    -0.798874347140E+03    0.29180E+00   -0.12443E+00 11392   0.234E+00    0.959E+00
DAV:  10    -0.798870025989E+03    0.43212E-02   -0.16209E-01 12184   0.763E-01    0.229E+00
DAV:  11    -0.798866438393E+03    0.35876E-02   -0.68270E-02 11688   0.509E-01    0.226E+00
DAV:  12    -0.798866934627E+03   -0.49623E-03   -0.12289E-02 12512   0.235E-01    0.340E-01
DAV:  13    -0.798867257859E+03   -0.32323E-03   -0.32993E-03 11864   0.931E-02    0.422E-01
DAV:  14    -0.798867264592E+03   -0.67328E-05   -0.61204E-04 11488   0.447E-02    0.164E-01
DAV:  15    -0.798867300658E+03   -0.36067E-04   -0.19423E-04 13672   0.244E-02    0.109E-01
DAV:  16    -0.798867295925E+03    0.47337E-05   -0.21417E-05  6712   0.969E-03
   1 F= -.79886730E+03 E0= -.79886730E+03  d E =-.798867E+03
 curvature:   0.00 expect dE= 0.000E+00 dE for cont linesearch  0.000E+00
 trial: gam= 0.00000 g(F)=  0.104E+01 g(S)=  0.000E+00 ort = 0.000E+00 (trialstep = 0.100E+01)
 search vector abs. value=  0.104E+01
 bond charge predicted
       N       E                     dE             d eps       ncg     rms          rms(c)
DAV:   1    -0.798899154125E+03   -0.31853E-01   -0.25362E+02 10192   0.307E+01    0.123E+01
DAV:   2    -0.799549925300E+03   -0.65077E+00   -0.75362E+00 11920   0.505E+00    0.783E+00
DAV:   3    -0.799514759708E+03    0.35166E-01   -0.24742E-01 12208   0.104E+00    0.445E+00
DAV:   4    -0.799505025307E+03    0.97344E-02   -0.99800E-02 11936   0.651E-01    0.162E+00
DAV:   5    -0.799502808448E+03    0.22169E-02   -0.23792E-02 14056   0.393E-01    0.517E-01
DAV:   6    -0.799503020356E+03   -0.21191E-03   -0.51552E-03 11624   0.130E-01    0.257E-01
DAV:   7    -0.799502965265E+03    0.55091E-04   -0.93428E-04 12312   0.588E-02    0.126E-01
DAV:   8    -0.799502933405E+03    0.31859E-04   -0.33115E-04 13120   0.432E-02    0.404E-02
DAV:   9    -0.799502931017E+03    0.23885E-05   -0.61567E-05  9992   0.164E-02
   2 F= -.79950293E+03 E0= -.79950293E+03  d E =-.635635E+00
 trial-energy change:   -0.635635  1 .order   -0.636112   -1.040588   -0.231635
 step:   1.2863(harm=  1.2863)  dis= 0.04619  next Energy=  -799.536571 (dE=-0.669E+00)
 bond charge predicted
       N       E                     dE             d eps       ncg     rms          rms(c)
DAV:   1    -0.799488784846E+03    0.14149E-01   -0.20845E+01 10240   0.875E+00    0.350E+00
DAV:   2    -0.799539552306E+03   -0.50767E-01   -0.59070E-01 11912   0.142E+00    0.221E+00
DAV:   3    -0.799537029257E+03    0.25230E-02   -0.20084E-02 12248   0.283E-01    0.122E+00
DAV:   4    -0.799536277102E+03    0.75215E-03   -0.73058E-03 12016   0.174E-01    0.473E-01
DAV:   5    -0.799536107553E+03    0.16955E-03   -0.17609E-03 14024   0.107E-01    0.135E-01
DAV:   6    -0.799536122406E+03   -0.14854E-04   -0.42624E-04 11544   0.372E-02    0.697E-02
DAV:   7    -0.799536117462E+03    0.49442E-05   -0.67946E-05 10152   0.162E-02
   3 F= -.79953612E+03 E0= -.79953612E+03  d E =-.668822E+00
 curvature:  -0.64 expect dE=-0.282E+00 dE for cont linesearch -0.881E-06
 trial: gam= 0.42008 g(F)=  0.438E+00 g(S)=  0.000E+00 ort = 0.119E-02 (trialstep = 0.106E+01)
 search vector abs. value=  0.623E+00
 bond charge predicted
       N       E                     dE             d eps       ncg     rms          rms(c)
DAV:   1    -0.799247931555E+03    0.28819E+00   -0.14494E+02 10192   0.236E+01    0.957E+00
DAV:   2    -0.799764305372E+03   -0.51637E+00   -0.59897E+00 11632   0.449E+00    0.463E+00
DAV:   3    -0.799751488506E+03    0.12817E-01   -0.16223E-01 12168   0.855E-01    0.346E+00
DAV:   4    -0.799747947406E+03    0.35411E-02   -0.68560E-02 11712   0.476E-01    0.129E+00
DAV:   5    -0.799746535071E+03    0.14123E-02   -0.19795E-02 14648   0.369E-01    0.414E-01
DAV:   6    -0.799746484118E+03    0.50953E-04   -0.41230E-03 12792   0.121E-01    0.170E-01
DAV:   7    -0.799746502299E+03   -0.18181E-04   -0.54217E-04 12384   0.410E-02    0.912E-02
DAV:   8    -0.799746503981E+03   -0.16814E-05   -0.16550E-04 12600   0.298E-02    0.303E-02
DAV:   9    -0.799746505914E+03   -0.19338E-05   -0.26314E-05  8048   0.108E-02
   4 F= -.79974651E+03 E0= -.79974651E+03  d E =-.210388E+00
 trial-energy change:   -0.210388  1 .order   -0.211544   -0.463952    0.040863
 step:   0.9706(harm=  0.9717)  dis= 0.02524  next Energy=  -799.748182 (dE=-0.212E+00)
 bond charge predicted
       N       E                     dE             d eps       ncg     rms          rms(c)
DAV:   1    -0.799744904472E+03    0.15995E-02   -0.97499E-01 10248   0.193E+00    0.764E-01
DAV:   2    -0.799748331958E+03   -0.34275E-02   -0.39586E-02 11584   0.365E-01    0.378E-01
DAV:   3    -0.799748244562E+03    0.87397E-04   -0.10643E-03 12204   0.684E-02    0.282E-01
DAV:   4    -0.799748221802E+03    0.22760E-04   -0.41597E-04 11400   0.369E-02    0.103E-01
DAV:   5    -0.799748213893E+03    0.79093E-05   -0.11284E-04 12472   0.280E-02    0.311E-02
DAV:   6    -0.799748213943E+03   -0.50059E-07   -0.21021E-05  7384   0.921E-03
   5 F= -.79974821E+03 E0= -.79974821E+03  d E =-.212096E+00
 curvature:  -0.69 expect dE=-0.781E-01 dE for cont linesearch -0.222E-08
 trial: gam= 0.24777 g(F)=  0.113E+00 g(S)=  0.000E+00 ort = 0.448E-04 (trialstep = 0.104E+01)
 search vector abs. value=  0.151E+00
 bond charge predicted
       N       E                     dE             d eps       ncg     rms          rms(c)
DAV:   1    -0.799727450797E+03    0.20763E-01   -0.37521E+01 10192   0.121E+01    0.373E+00
DAV:   2    -0.799829554105E+03   -0.10210E+00   -0.11585E+00 11488   0.198E+00    0.237E+00
DAV:   3    -0.799826402708E+03    0.31514E-02   -0.31645E-02 12696   0.377E-01    0.144E+00
DAV:   4    -0.799825327132E+03    0.10756E-02   -0.12883E-02 12184   0.253E-01    0.541E-01
DAV:   5    -0.799825130557E+03    0.19657E-03   -0.28695E-03 14000   0.128E-01    0.155E-01
DAV:   6    -0.799825148746E+03   -0.18188E-04   -0.57838E-04 11968   0.463E-02    0.857E-02
DAV:   7    -0.799825147596E+03    0.11492E-05   -0.79239E-05 10464   0.190E-02
   6 F= -.79982515E+03 E0= -.79982515E+03  d E =-.769337E-01
 trial-energy change:   -0.076934  1 .order   -0.077005   -0.117745   -0.036266
 step:   1.5028(harm=  1.5028)  dis= 0.01423  next Energy=  -799.833290 (dE=-0.851E-01)
 bond charge predicted
       N       E                     dE             d eps       ncg     rms          rms(c)
DAV:   1    -0.799813851827E+03    0.11297E-01   -0.74416E+00 10192   0.539E+00    0.166E+00
DAV:   2    -0.799834048982E+03   -0.20197E-01   -0.22906E-01 11536   0.882E-01    0.106E+00
DAV:   3    -0.799833417303E+03    0.63168E-03   -0.63583E-03 12752   0.170E-01    0.642E-01
DAV:   4    -0.799833204650E+03    0.21265E-03   -0.25637E-03 12128   0.112E-01    0.240E-01
DAV:   5    -0.799833167370E+03    0.37280E-04   -0.56802E-04 13992   0.569E-02    0.688E-02
DAV:   6    -0.799833170559E+03   -0.31894E-05   -0.11444E-04 10768   0.209E-02    0.378E-02
DAV:   7    -0.799833170266E+03    0.29332E-06   -0.14250E-05  6776   0.863E-03
   7 F= -.79983317E+03 E0= -.79983317E+03  d E =-.849563E-01
 curvature:  -1.01 expect dE=-0.402E-01 dE for cont linesearch -0.141E-06
 trial: gam= 0.35812 g(F)=  0.399E-01 g(S)=  0.000E+00 ort =-0.146E-03 (trialstep = 0.113E+01)
 search vector abs. value=  0.593E-01
 bond charge predicted
       N       E                     dE             d eps       ncg     rms          rms(c)
DAV:   1    -0.799822429449E+03    0.10741E-01   -0.18667E+01 10200   0.836E+00    0.233E+00
DAV:   2    -0.799868479006E+03   -0.46050E-01   -0.49855E-01 11280   0.130E+00    0.135E+00
DAV:   3    -0.799867362111E+03    0.11169E-02   -0.14758E-02 13184   0.217E-01    0.760E-01
DAV:   4    -0.799866866424E+03    0.49569E-03   -0.28085E-03 12200   0.105E-01    0.276E-01
DAV:   5    -0.799866851195E+03    0.15229E-04   -0.72219E-04 13936   0.639E-02    0.785E-02
DAV:   6    -0.799866856103E+03   -0.49074E-05   -0.12791E-04 10448   0.210E-02    0.351E-02
DAV:   7    -0.799866852316E+03    0.37864E-05   -0.26265E-05  8344   0.105E-02
   8 F= -.79986685E+03 E0= -.79986685E+03  d E =-.336821E-01
 trial-energy change:   -0.033682  1 .order   -0.033892   -0.045174   -0.022610
 step:   2.4211(harm=  2.2673)  dis= 0.01581  next Energy=  -799.879406 (dE=-0.462E-01)
 bond charge predicted
       N       E                     dE             d eps       ncg     rms          rms(c)
DAV:   1    -0.799819872014E+03    0.46984E-01   -0.24163E+01 10200   0.952E+00    0.263E+00
DAV:   2    -0.799879586141E+03   -0.59714E-01   -0.64630E-01 11304   0.148E+00    0.153E+00
DAV:   3    -0.799878153247E+03    0.14329E-02   -0.19116E-02 13200   0.246E-01    0.867E-01
DAV:   4    -0.799877499686E+03    0.65356E-03   -0.36219E-03 12200   0.119E-01    0.317E-01
DAV:   5    -0.799877480301E+03    0.19385E-04   -0.94396E-04 14000   0.728E-02    0.900E-02
DAV:   6    -0.799877486663E+03   -0.63621E-05   -0.17135E-04 11032   0.243E-02    0.406E-02
DAV:   7    -0.799877481774E+03    0.48897E-05   -0.34064E-05  8880   0.117E-02
   9 F= -.79987748E+03 E0= -.79987748E+03  d E =-.443115E-01
 curvature:  -1.65 expect dE=-0.865E-01 dE for cont linesearch -0.222E-03
 trial: gam= 1.38337 g(F)=  0.523E-01 g(S)=  0.000E+00 ort =-0.282E-02 (trialstep = 0.522E+00)
 search vector abs. value=  0.158E+00
 bond charge predicted
       N       E                     dE             d eps       ncg     rms          rms(c)
DAV:   1    -0.799874061440E+03    0.34252E-02   -0.10568E+01 10192   0.625E+00    0.129E+00
DAV:   2    -0.799898915150E+03   -0.24854E-01   -0.26980E-01 11152   0.946E-01    0.763E-01
DAV:   3    -0.799898427720E+03    0.48743E-03   -0.82008E-03 13224   0.149E-01    0.466E-01
DAV:   4    -0.799898065610E+03    0.36211E-03   -0.14696E-03 12192   0.794E-02    0.168E-01
DAV:   5    -0.799898054651E+03    0.10959E-04   -0.38855E-04 13792   0.468E-02    0.649E-02
DAV:   6    -0.799898062545E+03   -0.78946E-05   -0.70551E-05  9976   0.143E-02
  10 F= -.79989806E+03 E0= -.79989806E+03  d E =-.205808E-01
 trial-energy change:   -0.020581  1 .order   -0.020649   -0.025252   -0.016046
 step:   1.5716(harm=  1.4312)  dis= 0.01952  next Energy=  -799.913651 (dE=-0.362E-01)
 bond charge predicted
       N       E                     dE             d eps       ncg     rms          rms(c)
DAV:   1    -0.799815067029E+03    0.82988E-01   -0.42782E+01 10192   0.126E+01    0.261E+00
DAV:   2    -0.799916305059E+03   -0.10124E+00   -0.10996E+00 11176   0.191E+00    0.155E+00
DAV:   3    -0.799914252349E+03    0.20527E-02   -0.33662E-02 13208   0.304E-01    0.946E-01
DAV:   4    -0.799912793861E+03    0.14585E-02   -0.62615E-03 12112   0.163E-01    0.342E-01
DAV:   5    -0.799912735696E+03    0.58165E-04   -0.16394E-03 14008   0.965E-02    0.136E-01
DAV:   6    -0.799912769698E+03   -0.34002E-04   -0.29350E-04 11344   0.291E-02    0.653E-02
DAV:   7    -0.799912755438E+03    0.14260E-04   -0.43511E-05  9400   0.159E-02    0.264E-02
DAV:   8    -0.799912753478E+03    0.19595E-05   -0.21604E-05  7448   0.112E-02
  11 F= -.79991275E+03 E0= -.79991275E+03  d E =-.352717E-01
 curvature:  -2.28 expect dE=-0.983E-01 dE for cont linesearch -0.970E-04
 trial: gam= 0.72900 g(F)=  0.431E-01 g(S)=  0.000E+00 ort =-0.259E-02 (trialstep = 0.732E+00)
 search vector abs. value=  0.123E+00
 bond charge predicted
       N       E                     dE             d eps       ncg     rms          rms(c)
DAV:   1    -0.799895173183E+03    0.17582E-01   -0.15576E+01 10192   0.758E+00    0.202E+00
DAV:   2    -0.799935397848E+03   -0.40225E-01   -0.43306E-01 11080   0.118E+00    0.979E-01
DAV:   3    -0.799934734716E+03    0.66313E-03   -0.13462E-02 13200   0.201E-01    0.569E-01
DAV:   4    -0.799934428446E+03    0.30627E-03   -0.17534E-03 12528   0.813E-02    0.199E-01
DAV:   5    -0.799934428690E+03   -0.24419E-06   -0.39791E-04 13424   0.454E-02    0.539E-02
DAV:   6    -0.799934431845E+03   -0.31550E-05   -0.73382E-05 10240   0.165E-02
  12 F= -.79993443E+03 E0= -.79993443E+03  d E =-.216784E-01
 trial-energy change:   -0.021678  1 .order   -0.021808   -0.030167   -0.013448
 step:   1.3765(harm=  1.3203)  dis= 0.01518  next Energy=  -799.940269 (dE=-0.275E-01)
 bond charge predicted
       N       E                     dE             d eps       ncg     rms          rms(c)
DAV:   1    -0.799909273659E+03    0.25155E-01   -0.12104E+01 10192   0.668E+00    0.178E+00
DAV:   2    -0.799940570644E+03   -0.31297E-01   -0.33682E-01 11072   0.104E+00    0.860E-01
DAV:   3    -0.799940083109E+03    0.48754E-03   -0.10387E-02 13176   0.176E-01    0.501E-01
DAV:   4    -0.799939850490E+03    0.23262E-03   -0.13562E-03 12560   0.716E-02    0.175E-01
DAV:   5    -0.799939850878E+03   -0.38809E-06   -0.30559E-04 12984   0.400E-02    0.474E-02
DAV:   6    -0.799939853499E+03   -0.26217E-05   -0.55488E-05  9912   0.145E-02
  13 F= -.79993985E+03 E0= -.79993985E+03  d E =-.271000E-01
 curvature:  -1.96 expect dE=-0.403E-01 dE for cont linesearch -0.347E-04
 trial: gam= 0.47349 g(F)=  0.206E-01 g(S)=  0.000E+00 ort =-0.148E-02 (trialstep = 0.861E+00)
 search vector abs. value=  0.469E-01
 bond charge predicted
       N       E                     dE             d eps       ncg     rms          rms(c)
DAV:   1    -0.799929525961E+03    0.10325E-01   -0.79407E+00 10192   0.552E+00    0.141E+00
DAV:   2    -0.799950763826E+03   -0.21238E-01   -0.23873E-01 11360   0.900E-01    0.731E-01
DAV:   3    -0.799950242562E+03    0.52126E-03   -0.78251E-03 12920   0.172E-01    0.464E-01
DAV:   4    -0.799949985721E+03    0.25684E-03   -0.14247E-03 11960   0.735E-02    0.202E-01
DAV:   5    -0.799949935441E+03    0.50280E-04   -0.38150E-04 13752   0.508E-02    0.508E-02
DAV:   6    -0.799949943155E+03   -0.77134E-05   -0.10096E-04 10224   0.186E-02    0.235E-02
DAV:   7    -0.799949942378E+03    0.77709E-06   -0.15177E-05  6832   0.828E-03
  14 F= -.79994994E+03 E0= -.79994994E+03  d E =-.100889E-01
 trial-energy change:   -0.010089  1 .order   -0.010103   -0.017152   -0.003055
 step:   1.0472(harm=  1.0472)  dis= 0.00616  next Energy=  -799.950288 (dE=-0.104E-01)
 bond charge predicted
       N       E                     dE             d eps       ncg     rms          rms(c)
DAV:   1    -0.799949311255E+03    0.63190E-03   -0.37326E-01 10216   0.120E+00    0.303E-01
DAV:   2    -0.799950309700E+03   -0.99845E-03   -0.11259E-02 11392   0.196E-01    0.158E-01
DAV:   3    -0.799950284411E+03    0.25289E-04   -0.37268E-04 12912   0.376E-02    0.101E-01
DAV:   4    -0.799950271792E+03    0.12619E-04   -0.68798E-05 10448   0.163E-02    0.444E-02
DAV:   5    -0.799950268708E+03    0.30845E-05   -0.14336E-05  7304   0.118E-02
  15 F= -.79995027E+03 E0= -.79995027E+03  d E =-.104152E-01
 curvature:  -1.23 expect dE=-0.870E-02 dE for cont linesearch -0.823E-06
 trial: gam= 0.31734 g(F)=  0.707E-02 g(S)=  0.000E+00 ort =-0.177E-03 (trialstep = 0.898E+00)
 search vector abs. value=  0.117E-01
 bond charge predicted
       N       E                     dE             d eps       ncg     rms          rms(c)
DAV:   1    -0.799948948210E+03    0.13236E-02   -0.21969E+00 10192   0.290E+00    0.882E-01
DAV:   2    -0.799955200044E+03   -0.62518E-02   -0.66913E-02 11440   0.472E-01    0.399E-01
DAV:   3    -0.799955097455E+03    0.10259E-03   -0.19143E-03 12840   0.814E-02    0.259E-01
DAV:   4    -0.799955050566E+03    0.46889E-04   -0.37007E-04 11880   0.380E-02    0.101E-01
DAV:   5    -0.799955049361E+03    0.12054E-05   -0.95162E-05 12160   0.236E-02
  16 F= -.79995505E+03 E0= -.79995505E+03  d E =-.478065E-02
 trial-energy change:   -0.004781  1 .order   -0.004704   -0.006297   -0.003111
 step:   1.5960(harm=  1.7746)  dis= 0.00476  next Energy=  -799.956294 (dE=-0.603E-02)
 bond charge predicted
       N       E                     dE             d eps       ncg     rms          rms(c)
DAV:   1    -0.799952904906E+03    0.21457E-02   -0.13282E+00 10192   0.226E+00    0.688E-01
DAV:   2    -0.799956692856E+03   -0.37880E-02   -0.40412E-02 11464   0.366E-01    0.309E-01
DAV:   3    -0.799956640885E+03    0.51971E-04   -0.11402E-03 12848   0.620E-02    0.200E-01
DAV:   4    -0.799956614180E+03    0.26705E-04   -0.20765E-04 11240   0.287E-02    0.771E-02
DAV:   5    -0.799956613911E+03    0.26914E-06   -0.51740E-05 10784   0.179E-02
  17 F= -.79995661E+03 E0= -.79995661E+03  d E =-.634520E-02
 curvature:  -1.42 expect dE=-0.521E-02 dE for cont linesearch -0.686E-04
 ZBRENT: extrapolating
 opt :   1.7896  next Energy=  -799.956687 (dE=-0.642E-02)
 bond charge predicted
       N       E                     dE             d eps       ncg     rms          rms(c)
DAV:   1    -0.799956428919E+03    0.18526E-03   -0.10235E-01 10236   0.626E-01    0.192E-01
DAV:   2    -0.799956722101E+03   -0.29318E-03   -0.31138E-03 11520   0.102E-01    0.852E-02
DAV:   3    -0.799956719407E+03    0.26940E-05   -0.84653E-05 10732   0.167E-02
  18 F= -.79995672E+03 E0= -.79995672E+03  d E =-.645070E-02
 curvature:  -1.50 expect dE=-0.674E-02 dE for cont linesearch -0.263E-06
 trial: gam= 0.63442 g(F)=  0.449E-02 g(S)=  0.000E+00 ort = 0.452E-04 (trialstep = 0.108E+01)
 search vector abs. value=  0.924E-02
 bond charge predicted
       N       E                     dE             d eps       ncg     rms          rms(c)
DAV:   1    -0.799952383250E+03    0.43389E-02   -0.25829E+00 10192   0.315E+00    0.107E+00
DAV:   2    -0.799959397449E+03   -0.70142E-02   -0.77113E-02 11760   0.518E-01    0.506E-01
DAV:   3    -0.799959136042E+03    0.26141E-03   -0.22224E-03 12816   0.954E-02    0.303E-01
DAV:   4    -0.799959075711E+03    0.60331E-04   -0.66752E-04 11768   0.474E-02    0.109E-01
DAV:   5    -0.799959068731E+03    0.69806E-05   -0.20360E-04 12696   0.339E-02    0.314E-02
DAV:   6    -0.799959067731E+03    0.99995E-06   -0.39745E-05  9408   0.126E-02
  19 F= -.79995907E+03 E0= -.79995907E+03  d E =-.234832E-02
 trial-energy change:   -0.002348  1 .order   -0.002308   -0.004858    0.000242
 step:   1.0275(harm=  1.0253)  dis= 0.00283  next Energy=  -799.959073 (dE=-0.235E-02)
 bond charge predicted
       N       E                     dE             d eps       ncg     rms          rms(c)
DAV:   1    -0.799959060946E+03    0.77846E-05   -0.52704E-03 10396   0.142E-01    0.501E-02
DAV:   2    -0.799959074862E+03   -0.13916E-04   -0.15227E-04 11760   0.229E-02    0.237E-02
DAV:   3    -0.799959073908E+03    0.95413E-06   -0.40477E-06  5884   0.493E-03
  20 F= -.79995907E+03 E0= -.79995907E+03  d E =-.235450E-02
 curvature:  -1.05 expect dE=-0.153E-02 dE for cont linesearch -0.286E-08
 trial: gam= 0.35897 g(F)=  0.146E-02 g(S)=  0.000E+00 ort =-0.502E-05 (trialstep = 0.107E+01)
 search vector abs. value=  0.265E-02
 bond charge predicted
       N       E                     dE             d eps       ncg     rms          rms(c)
DAV:   1    -0.799958440279E+03    0.63458E-03   -0.78200E-01 10248   0.167E+00    0.433E-01
DAV:   2    -0.799960143712E+03   -0.17034E-02   -0.18696E-02 11728   0.251E-01    0.259E-01
DAV:   3    -0.799960075856E+03    0.67856E-04   -0.61238E-04 12924   0.449E-02    0.153E-01
DAV:   4    -0.799960051831E+03    0.24025E-04   -0.15099E-04 10768   0.243E-02    0.570E-02
DAV:   5    -0.799960050064E+03    0.17664E-05   -0.36011E-05  8824   0.147E-02
  21 F= -.79996005E+03 E0= -.79996005E+03  d E =-.976156E-03
 trial-energy change:   -0.000976  1 .order   -0.000935   -0.001554   -0.000316
 step:   1.2865(harm=  1.3391)  dis= 0.00216  next Energy=  -799.960083 (dE=-0.101E-02)
 bond charge predicted
       N       E                     dE             d eps       ncg     rms          rms(c)
DAV:   1    -0.799960035700E+03    0.16131E-04   -0.33415E-02 10424   0.345E-01    0.913E-02
DAV:   2    -0.799960109780E+03   -0.74080E-04   -0.79781E-04 11760   0.516E-02    0.536E-02
DAV:   3    -0.799960107641E+03    0.21387E-05   -0.22166E-05  8080   0.869E-03
  22 F= -.79996011E+03 E0= -.79996011E+03  d E =-.103373E-02
 curvature:  -1.17 expect dE=-0.595E-03 dE for cont linesearch -0.531E-05
 ZBRENT: increasing intervall
 opt :   1.7264  next Energy=  -799.960074 (dE=-0.100E-02)
 bond charge predicted
       N       E                     dE             d eps       ncg     rms          rms(c)
DAV:   1    -0.799959808660E+03    0.30112E-03   -0.13240E-01 10296   0.687E-01    0.181E-01
DAV:   2    -0.799960092257E+03   -0.28360E-03   -0.31326E-03 11760   0.103E-01    0.110E-01
DAV:   3    -0.799960081966E+03    0.10291E-04   -0.10652E-04 11248   0.185E-02    0.654E-02
DAV:   4    -0.799960078116E+03    0.38507E-05   -0.25811E-05  8216   0.109E-02
  23 F= -.79996008E+03 E0= -.79996008E+03  d E =-.100421E-02
 curvature:   7.53 expect dE= 0.702E-02 dE for cont linesearch  0.477E-03
 ZBRENT: bracketing found
 ZBRENT: interpolating
 opt :   1.3794  next Energy=  -799.960113 (dE=-0.104E-02)
 bond charge predicted
       N       E                     dE             d eps       ncg     rms          rms(c)
DAV:   1    -0.799959948877E+03    0.13309E-03   -0.82771E-02 10280   0.544E-01    0.139E-01
DAV:   2    -0.799960128096E+03   -0.17922E-03   -0.19782E-03 11704   0.817E-02    0.841E-02
DAV:   3    -0.799960119806E+03    0.82898E-05   -0.62247E-05  9896   0.143E-02
  24 F= -.79996012E+03 E0= -.79996012E+03  d E =-.104590E-02
 curvature:  -0.08 expect dE=-0.475E-04 dE for cont linesearch -0.264E-06
 trial: gam= 0.33492 g(F)=  0.592E-03 g(S)=  0.000E+00 ort = 0.933E-04 (trialstep = 0.113E+01)
 search vector abs. value=  0.951E-03
 bond charge predicted
       N       E                     dE             d eps       ncg     rms          rms(c)
DAV:   1    -0.799959957468E+03    0.17063E-03   -0.31537E-01 10192   0.105E+00    0.242E-01
DAV:   2    -0.799960650731E+03   -0.69326E-03   -0.74550E-03 11592   0.157E-01    0.133E-01
DAV:   3    -0.799960630065E+03    0.20667E-04   -0.24162E-04 11876   0.267E-02    0.840E-02
DAV:   4    -0.799960620152E+03    0.99125E-05   -0.60001E-05  9904   0.155E-02
  25 F= -.79996062E+03 E0= -.79996062E+03  d E =-.500346E-03
 trial-energy change:   -0.000500  1 .order   -0.000458   -0.000704   -0.000212
 step:   1.4240(harm=  1.6167)  dis= 0.00138  next Energy=  -799.960649 (dE=-0.529E-03)
 bond charge predicted
       N       E                     dE             d eps       ncg     rms          rms(c)
DAV:   1    -0.799960645886E+03   -0.15821E-04   -0.21487E-02 10236   0.273E-01    0.680E-02
DAV:   2    -0.799960693899E+03   -0.48014E-04   -0.51549E-04 11752   0.410E-02    0.362E-02
DAV:   3    -0.799960691889E+03    0.20101E-05   -0.15588E-05  7380   0.814E-03
  26 F= -.79996069E+03 E0= -.79996069E+03  d E =-.572083E-03
 curvature:  -1.04 expect dE=-0.364E-03 dE for cont linesearch -0.426E-04
 ZBRENT: increasing intervall
 opt :   2.0140  next Energy=  -799.960814 (dE=-0.694E-03)
 bond charge predicted
       N       E                     dE             d eps       ncg     rms          rms(c)
DAV:   1    -0.799960589063E+03    0.10484E-03   -0.85322E-02 10216   0.544E-01    0.129E-01
DAV:   2    -0.799960771379E+03   -0.18232E-03   -0.19847E-03 11720   0.811E-02    0.725E-02
DAV:   3    -0.799960766160E+03    0.52190E-05   -0.67373E-05 10108   0.141E-02
  27 F= -.79996077E+03 E0= -.79996077E+03  d E =-.646354E-03
 curvature:  -2.98 expect dE=-0.171E-02 dE for cont linesearch -0.109E-05
 trial: gam= 0.95196 g(F)=  0.574E-03 g(S)=  0.000E+00 ort = 0.186E-04 (trialstep = 0.845E+00)
 search vector abs. value=  0.147E-02
 bond charge predicted
       N       E                     dE             d eps       ncg     rms          rms(c)
DAV:   1    -0.799960621147E+03    0.15023E-03   -0.26904E-01 10192   0.956E-01    0.204E-01
DAV:   2    -0.799961172226E+03   -0.55108E-03   -0.60162E-03 11544   0.141E-01    0.935E-02
DAV:   3    -0.799961150043E+03    0.22182E-04   -0.18829E-04 12052   0.245E-02    0.649E-02
DAV:   4    -0.799961141086E+03    0.89579E-05   -0.44444E-05  9760   0.122E-02
  28 F= -.79996114E+03 E0= -.79996114E+03  d E =-.374926E-03
 trial-energy change:   -0.000375  1 .order   -0.000336   -0.000499   -0.000173
 step:   1.2907(harm=  1.2907)  dis= 0.00151  next Energy=  -799.961148 (dE=-0.382E-03)
 bond charge predicted
       N       E                     dE             d eps       ncg     rms          rms(c)
DAV:   1    -0.799961067388E+03    0.82655E-04   -0.75048E-02 10228   0.505E-01    0.113E-01
DAV:   2    -0.799961223726E+03   -0.15634E-03   -0.17018E-03 11576   0.749E-02    0.504E-02
DAV:   3    -0.799961217402E+03    0.63243E-05   -0.52665E-05  9716   0.136E-02
  29 F= -.79996122E+03 E0= -.79996122E+03  d E =-.451242E-03
 curvature:  -1.61 expect dE=-0.424E-03 dE for cont linesearch -0.519E-05
 ZBRENT: increasing intervall
 opt :   2.1829  next Energy=  -799.961158 (dE=-0.392E-03)
 bond charge predicted
       N       E                     dE             d eps       ncg     rms          rms(c)
DAV:   1    -0.799960562108E+03    0.66162E-03   -0.30062E-01 10192   0.101E+00    0.222E-01
DAV:   2    -0.799961169440E+03   -0.60733E-03   -0.67258E-03 11552   0.149E-01    0.105E-01
DAV:   3    -0.799961145596E+03    0.23844E-04   -0.21595E-04 12124   0.259E-02    0.723E-02
DAV:   4    -0.799961135481E+03    0.10116E-04   -0.60590E-05 10056   0.143E-02    0.296E-02
DAV:   5    -0.799961133824E+03    0.16567E-05   -0.12602E-05  6760   0.100E-02
  30 F= -.79996113E+03 E0= -.79996113E+03  d E =-.367664E-03
 curvature:  18.34 expect dE= 0.190E-01 dE for cont linesearch  0.124E-02
 ZBRENT: bracketing found
 ZBRENT: interpolating
 opt :   1.4510  next Energy=  -799.961223 (dE=-0.457E-03)
 bond charge predicted
       N       E                     dE             d eps       ncg     rms          rms(c)
DAV:   1    -0.799960832490E+03    0.30299E-03   -0.20281E-01 10200   0.831E-01    0.178E-01
DAV:   2    -0.799961249120E+03   -0.41663E-03   -0.45895E-03 11508   0.124E-01    0.810E-02
DAV:   3    -0.799961232164E+03    0.16956E-04   -0.14391E-04 11668   0.214E-02    0.560E-02
DAV:   4    -0.799961224922E+03    0.72420E-05   -0.40715E-05  9296   0.119E-02
  31 F= -.79996122E+03 E0= -.79996122E+03  d E =-.458762E-03
 curvature:  -0.08 expect dE=-0.321E-04 dE for cont linesearch -0.557E-06
 ZBRENT: bisectioning
 opt :   1.8170  next Energy=  -799.961274 (dE=-0.508E-03)
 bond charge predicted
       N       E                     dE             d eps       ncg     rms          rms(c)
DAV:   1    -0.799961105275E+03    0.12689E-03   -0.50904E-02 10208   0.416E-01    0.856E-02
DAV:   2    -0.799961210634E+03   -0.10536E-03   -0.11520E-03 11448   0.617E-02    0.387E-02
DAV:   3    -0.799961206570E+03    0.40634E-05   -0.33009E-05  8912   0.101E-02
  32 F= -.79996121E+03 E0= -.79996121E+03  d E =-.440410E-03
 curvature:  -7.29 expect dE=-0.443E-02 dE for cont linesearch -0.112E-03
 ZBRENT: interpolating
 opt :   1.5970  next Energy=  -799.961232 (dE=-0.466E-03)
 bond charge predicted
       N       E                     dE             d eps       ncg     rms          rms(c)
DAV:   1    -0.799961183510E+03    0.27123E-04   -0.18610E-02 10208   0.252E-01    0.532E-02
DAV:   2    -0.799961225163E+03   -0.41653E-04   -0.43961E-04 11444   0.379E-02    0.204E-02
DAV:   3    -0.799961223374E+03    0.17894E-05   -0.10316E-05  6252   0.650E-03
  33 F= -.79996122E+03 E0= -.79996122E+03  d E =-.457214E-03
 curvature:  -0.47 expect dE=-0.212E-03 dE for cont linesearch -0.249E-06
 trial: gam= 0.96138 g(F)=  0.447E-03 g(S)=  0.000E+00 ort =-0.278E-04 (trialstep = 0.835E+00)
 search vector abs. value=  0.175E-02
 bond charge predicted
       N       E                     dE             d eps       ncg     rms          rms(c)
DAV:   1    -0.799960868192E+03    0.35697E-03   -0.32302E-01 10232   0.103E+00    0.223E-01
DAV:   2    -0.799961494414E+03   -0.62622E-03   -0.67241E-03 11560   0.147E-01    0.109E-01
DAV:   3    -0.799961470087E+03    0.24326E-04   -0.19838E-04 11736   0.235E-02    0.670E-02
DAV:   4    -0.799961460972E+03    0.91151E-05   -0.49456E-05  9792   0.140E-02
  34 F= -.79996146E+03 E0= -.79996146E+03  d E =-.237598E-03
 trial-energy change:   -0.000238  1 .order   -0.000180   -0.000351   -0.000009
 step:   0.8458(harm=  0.8571)  dis= 0.00131  next Energy=  -799.961461 (dE=-0.238E-03)
 bond charge predicted
       N       E                     dE             d eps       ncg     rms          rms(c)
DAV:   1    -0.799961462025E+03    0.80625E-05   -0.68054E-05  8856   0.157E-02    0.101E-02
DAV:   2    -0.799961462321E+03   -0.29630E-06   -0.38592E-06  5880   0.364E-03
  35 F= -.79996146E+03 E0= -.79996146E+03  d E =-.238947E-03
 curvature:  -1.33 expect dE=-0.277E-03 dE for cont linesearch -0.142E-04
 ZBRENT: increasing intervall
 opt :   0.8679  next Energy=  -799.961468 (dE=-0.245E-03)
 bond charge predicted
       N       E                     dE             d eps       ncg     rms          rms(c)
DAV:   1    -0.799961464772E+03   -0.27468E-05   -0.22726E-04  9848   0.274E-02    0.684E-03
DAV:   2    -0.799961465219E+03   -0.44768E-06   -0.48995E-06  5608   0.413E-03
  36 F= -.79996147E+03 E0= -.79996147E+03  d E =-.241845E-03
 curvature:  -0.54 expect dE=-0.113E-03 dE for cont linesearch -0.457E-05
 ZBRENT: increasing intervall
 opt :   0.9121  next Energy=  -799.961470 (dE=-0.247E-03)
 bond charge predicted
       N       E                     dE             d eps       ncg     rms          rms(c)
DAV:   1    -0.799961469141E+03   -0.43697E-05   -0.90285E-04 10256   0.542E-02    0.122E-02
DAV:   2    -0.799961470762E+03   -0.16207E-05   -0.17741E-05  6632   0.767E-03
  37 F= -.79996147E+03 E0= -.79996147E+03  d E =-.247388E-03
 curvature:  -0.56 expect dE=-0.117E-03 dE for cont linesearch -0.320E-05
 ZBRENT: increasing intervall
 opt :   1.0006  next Energy=  -799.961478 (dE=-0.254E-03)
 bond charge predicted
       N       E                     dE             d eps       ncg     rms          rms(c)
DAV:   1    -0.799961473560E+03   -0.44187E-05   -0.36075E-03 10288   0.108E-01    0.243E-02
DAV:   2    -0.799961480366E+03   -0.68059E-05   -0.74542E-05 11120   0.153E-02
  38 F= -.79996148E+03 E0= -.79996148E+03  d E =-.256992E-03
 curvature:  -1.22 expect dE=-0.261E-03 dE for cont linesearch -0.234E-05
 ZBRENT: increasing intervall
 opt :   1.1777  next Energy=  -799.961483 (dE=-0.260E-03)
 bond charge predicted
       N       E                     dE             d eps       ncg     rms          rms(c)
DAV:   1    -0.799961466112E+03    0.74486E-05   -0.14451E-02 10236   0.216E-01    0.500E-02
DAV:   2    -0.799961492700E+03   -0.26588E-04   -0.29434E-04 11792   0.305E-02    0.280E-02
DAV:   3    -0.799961491120E+03    0.15801E-05   -0.84578E-06  6352   0.521E-03
  39 F= -.79996149E+03 E0= -.79996149E+03  d E =-.267746E-03
 curvature:  -1.44 expect dE=-0.345E-03 dE for cont linesearch -0.380E-06
 trial: gam= 0.25749 g(F)=  0.240E-03 g(S)=  0.000E+00 ort = 0.215E-04 (trialstep = 0.903E+00)
 search vector abs. value=  0.367E-03
 bond charge predicted
       N       E                     dE             d eps       ncg     rms          rms(c)
DAV:   1    -0.799961466639E+03    0.26061E-04   -0.73957E-02 10200   0.521E-01    0.183E-01
DAV:   2    -0.799961644858E+03   -0.17822E-03   -0.19754E-03 11616   0.823E-02    0.929E-02
DAV:   3    -0.799961636864E+03    0.79933E-05   -0.59527E-05 10164   0.159E-02
  40 F= -.79996164E+03 E0= -.79996164E+03  d E =-.145745E-03
 trial-energy change:   -0.000146  1 .order   -0.000134   -0.000222   -0.000045
 step:   1.1351(harm=  1.1351)  dis= 0.00069  next Energy=  -799.961631 (dE=-0.139E-03)
 reached required accuracy - stopping structural energy minimisation
 writing wavefunctions
