 running on  100 total cores
 distrk:  each k-point on  100 cores,    1 groups
 distr:  one band on   25 cores,    4 groups
 using from now: INCAR     
 vasp.5.4.4.18Apr17-6-g9f103f2a35 (build May 23 2017 16:08:52) complex          
  
 POSCAR found :  4 types and      75 ions
 scaLAPACK will be used

 ----------------------------------------------------------------------------- 
|                                                                             |
|           W    W    AA    RRRRR   N    N  II  N    N   GGGG   !!!           |
|           W    W   A  A   R    R  NN   N  II  NN   N  G    G  !!!           |
|           W    W  A    A  R    R  N N  N  II  N N  N  G       !!!           |
|           W WW W  AAAAAA  RRRRR   N  N N  II  N  N N  G  GGG   !            |
|           WW  WW  A    A  R   R   N   NN  II  N   NN  G    G                |
|           W    W  A    A  R    R  N    N  II  N    N   GGGG   !!!           |
|                                                                             |
|      For optimal performance we recommend to set                            |
|        NCORE= 4 - approx SQRT( number of cores)                             |
|      NCORE specifies how many cores store one orbital (NPAR=cpu/NCORE).     |
|      This setting can  greatly improve the performance of VASP for DFT.     |
|      The default,   NCORE=1            might be grossly inefficient         |
|      on modern multi-core architectures or massively parallel machines.     |
|      Do your own testing !!!!                                               |
|      Unfortunately you need to use the default for GW and RPA calculations. |
|      (for HF NCORE is supported but not extensively tested yet)             |
|                                                                             |
 ----------------------------------------------------------------------------- 


 ----------------------------------------------------------------------------- 
|                                                                             |
|  ADVICE TO THIS USER RUNNING 'VASP/VAMP'   (HEAR YOUR MASTER'S VOICE ...):  |
|                                                                             |
|      You have a (more or less) 'large supercell' and for larger cells       |
|      it might be more efficient to use real space projection opertators     |
|      So try LREAL= Auto  in the INCAR   file.                               |
|      Mind:          For very  accurate calculation you might also keep the  |
|      reciprocal projection scheme          (i.e. LREAL=.FALSE.)             |
|                                                                             |
 ----------------------------------------------------------------------------- 

 LDA part: xc-table for Pade appr. of Perdew
 POSCAR, INCAR and KPOINTS ok, starting setup
 FFT: planning ...
 WAVECAR not read
 entering main loop
       N       E                     dE             d eps       ncg     rms          rms(c)
DAV:   1     0.763286911891E+04    0.76329E+04   -0.30269E+05 11648   0.174E+03
DAV:   2     0.896110612832E+03   -0.67368E+04   -0.63891E+04 11688   0.554E+02
DAV:   3    -0.613884346395E+03   -0.15100E+04   -0.14628E+04 16648   0.237E+02
DAV:   4    -0.730173335712E+03   -0.11629E+03   -0.11506E+03 17088   0.721E+01
DAV:   5    -0.740111053899E+03   -0.99377E+01   -0.98736E+01 21776   0.175E+01    0.942E+01
DAV:   6    -0.605805030101E+03    0.13431E+03   -0.78965E+02 16448   0.655E+01    0.569E+01
DAV:   7    -0.608614128228E+03   -0.28091E+01   -0.14865E+02 16272   0.283E+01    0.403E+01
DAV:   8    -0.614343287374E+03   -0.57292E+01   -0.73942E+01 17064   0.245E+01    0.203E+01
DAV:   9    -0.611435823249E+03    0.29075E+01   -0.45498E+01 15728   0.181E+01    0.175E+01
DAV:  10    -0.607098757368E+03    0.43371E+01   -0.19226E+01 16636   0.107E+01    0.754E+00
DAV:  11    -0.605901965351E+03    0.11968E+01   -0.41621E+00 17168   0.542E+00    0.424E+00
DAV:  12    -0.606119455068E+03   -0.21749E+00   -0.36223E+00 17324   0.404E+00    0.471E+00
DAV:  13    -0.605823043684E+03    0.29641E+00   -0.20490E+00 16432   0.316E+00    0.270E+00
DAV:  14    -0.605797691016E+03    0.25353E-01   -0.75249E-01 17328   0.204E+00    0.208E+00
DAV:  15    -0.605769199931E+03    0.28491E-01   -0.37184E-01 16608   0.148E+00    0.126E+00
DAV:  16    -0.605769543881E+03   -0.34395E-03   -0.21755E-01 15296   0.104E+00    0.102E+00
DAV:  17    -0.605758003949E+03    0.11540E-01   -0.12332E-01 16992   0.794E-01    0.490E-01
DAV:  18    -0.605754150586E+03    0.38534E-02   -0.40898E-02 15104   0.415E-01    0.347E-01
DAV:  19    -0.605754385312E+03   -0.23473E-03   -0.13492E-02 17784   0.244E-01    0.194E-01
DAV:  20    -0.605754611765E+03   -0.22645E-03   -0.46408E-03 19296   0.175E-01    0.993E-02
DAV:  21    -0.605754263629E+03    0.34814E-03   -0.10414E-03 16888   0.916E-02    0.573E-02
DAV:  22    -0.605754304432E+03   -0.40803E-04   -0.35919E-04 16968   0.561E-02    0.424E-02
DAV:  23    -0.605754354972E+03   -0.50540E-04   -0.29265E-04 13944   0.370E-02    0.295E-02
DAV:  24    -0.605754380745E+03   -0.25773E-04   -0.46610E-05  9672   0.217E-02    0.171E-02
DAV:  25    -0.605754312155E+03    0.68590E-04   -0.26567E-05  8016   0.173E-02    0.874E-03
DAV:  26    -0.605754319611E+03   -0.74551E-05   -0.13066E-05  6856   0.107E-02
   1 F= -.60575432E+03 E0= -.60575432E+03  d E =-.605754E+03
 curvature:   0.00 expect dE= 0.000E+00 dE for cont linesearch  0.000E+00
 trial: gam= 0.00000 g(F)=  0.100E+01 g(S)=  0.240E+01 ort = 0.000E+00 (trialstep = 0.100E+01)
 search vector abs. value=  0.341E+01
 bond charge predicted
       N       E                     dE             d eps       ncg     rms          rms(c)
DAV:   1    -0.620462031202E+03   -0.14708E+02   -0.64745E+02 14512   0.730E+01    0.344E+01
DAV:   2    -0.611375142978E+03    0.90869E+01   -0.92518E+01 14368   0.277E+01    0.171E+01
DAV:   3    -0.609907283926E+03    0.14679E+01   -0.38417E+01 16888   0.162E+01    0.148E+01
DAV:   4    -0.607918173882E+03    0.19891E+01   -0.23643E+01 14976   0.127E+01    0.129E+01
DAV:   5    -0.606874893721E+03    0.10433E+01   -0.13134E+01 16156   0.857E+00    0.737E+00
DAV:   6    -0.606737871212E+03    0.13702E+00   -0.59876E+00 17264   0.568E+00    0.700E+00
DAV:   7    -0.606288143678E+03    0.44973E+00   -0.27985E+00 16948   0.367E+00    0.486E+00
DAV:   8    -0.606240447137E+03    0.47697E-01   -0.12373E+00 16256   0.219E+00    0.392E+00
DAV:   9    -0.606223590180E+03    0.16857E-01   -0.95207E-01 17560   0.166E+00    0.304E+00
DAV:  10    -0.606209567683E+03    0.14022E-01   -0.49492E-01 17992   0.140E+00    0.194E+00
DAV:  11    -0.606214268570E+03   -0.47009E-02   -0.44619E-01 17064   0.120E+00    0.128E+00
DAV:  12    -0.606203145144E+03    0.11123E-01   -0.13687E-01 16584   0.910E-01    0.622E-01
DAV:  13    -0.606199845088E+03    0.33001E-02   -0.51570E-02 17304   0.472E-01    0.467E-01
DAV:  14    -0.606197214430E+03    0.26307E-02   -0.25548E-02 15900   0.313E-01    0.307E-01
DAV:  15    -0.606198058119E+03   -0.84369E-03   -0.58037E-03 16624   0.183E-01    0.207E-01
DAV:  16    -0.606198140120E+03   -0.82001E-04   -0.45439E-03 17412   0.112E-01    0.131E-01
DAV:  17    -0.606198030299E+03    0.10982E-03   -0.99040E-04 16856   0.876E-02    0.787E-02
DAV:  18    -0.606198175338E+03   -0.14504E-03   -0.72930E-04 18644   0.477E-02    0.601E-02
DAV:  19    -0.606198081716E+03    0.93623E-04   -0.59323E-04 14192   0.357E-02    0.710E-02
DAV:  20    -0.606198067360E+03    0.14356E-04   -0.48621E-04 10440   0.265E-02    0.382E-02
DAV:  21    -0.606198058893E+03    0.84671E-05   -0.12302E-04  8344   0.168E-02    0.289E-02
DAV:  22    -0.606198051752E+03    0.71407E-05   -0.86155E-05  7064   0.117E-02
   2 F= -.60619805E+03 E0= -.60619805E+03  d E =-.443732E+00
 trial-energy change:   -0.443732  1 .order   -0.505141   -3.408593    2.398311
 step:   0.5715(harm=  0.5870)  dis= 0.02727  next Energy=  -606.716782 (dE=-0.962E+00)
 bond charge predicted
       N       E                     dE             d eps       ncg     rms          rms(c)
DAV:   1    -0.609516819098E+03   -0.33188E+01   -0.11948E+02 14596   0.313E+01    0.148E+01
DAV:   2    -0.607519070357E+03    0.19977E+01   -0.15471E+01 14204   0.102E+01    0.678E+00
DAV:   3    -0.607925340662E+03   -0.40627E+00   -0.86072E+00 15960   0.784E+00    0.736E+00
DAV:   4    -0.607144714099E+03    0.78063E+00   -0.55726E+00 15416   0.572E+00    0.460E+00
DAV:   5    -0.606727353012E+03    0.41736E+00   -0.35868E+00 15556   0.324E+00    0.219E+00
DAV:   6    -0.606725274346E+03    0.20787E-02   -0.10769E+00 16960   0.203E+00    0.222E+00
DAV:   7    -0.606713426315E+03    0.11848E-01   -0.66199E-01 16612   0.150E+00    0.174E+00
DAV:   8    -0.606694036179E+03    0.19390E-01   -0.19631E-01 16452   0.855E-01    0.114E+00
DAV:   9    -0.606701012509E+03   -0.69763E-02   -0.51847E-02 19088   0.420E-01    0.979E-01
DAV:  10    -0.606703001494E+03   -0.19890E-02   -0.39899E-02 17232   0.412E-01    0.790E-01
DAV:  11    -0.606714435567E+03   -0.11434E-01   -0.57426E-02 17160   0.502E-01    0.486E-01
DAV:  12    -0.606712915316E+03    0.15203E-02   -0.24399E-02 17688   0.383E-01    0.219E-01
DAV:  13    -0.606711791223E+03    0.11241E-02   -0.39825E-03 17520   0.169E-01    0.118E-01
DAV:  14    -0.606712245830E+03   -0.45461E-03   -0.12338E-03 16860   0.777E-02    0.793E-02
DAV:  15    -0.606711873182E+03    0.37265E-03   -0.10173E-03 15336   0.477E-02    0.731E-02
DAV:  16    -0.606712302912E+03   -0.42973E-03   -0.34668E-04 13952   0.396E-02    0.531E-02
DAV:  17    -0.606711933045E+03    0.36987E-03   -0.68438E-04 11360   0.317E-02    0.558E-02
DAV:  18    -0.606712135621E+03   -0.20258E-03   -0.86410E-05  8792   0.214E-02    0.129E-02
DAV:  19    -0.606712080354E+03    0.55267E-04   -0.60204E-05  6912   0.101E-02    0.380E-02
DAV:  20    -0.606712108084E+03   -0.27730E-04   -0.70853E-05  6496   0.751E-03    0.340E-02
DAV:  21    -0.606712096108E+03    0.11976E-04   -0.38513E-05  6432   0.638E-03    0.274E-02
DAV:  22    -0.606712116451E+03   -0.20343E-04   -0.49272E-05  6376   0.491E-03    0.335E-02
DAV:  23    -0.606712089487E+03    0.26963E-04   -0.39087E-05  6352   0.403E-03    0.285E-02
DAV:  24    -0.606712108391E+03   -0.18903E-04   -0.26958E-05  6352   0.290E-03    0.262E-02
DAV:  25    -0.606712093773E+03    0.14618E-04   -0.21362E-05  6352   0.228E-03    0.240E-02
DAV:  26    -0.606712103835E+03   -0.10062E-04   -0.15308E-05  6328   0.186E-03    0.204E-02
DAV:  27    -0.606712096105E+03    0.77306E-05   -0.12626E-05  6264   0.164E-03
   3 F= -.60671210E+03 E0= -.60671210E+03  d E =-.957776E+00
 curvature:  -0.29 expect dE=-0.102E+00 dE for cont linesearch -0.264E-03
 trial: gam= 0.11798 g(F)=  0.265E+00 g(S)=  0.818E-01 ort =-0.554E-01 (trialstep = 0.914E+00)
 search vector abs. value=  0.381E+00
 bond charge predicted
       N       E                     dE             d eps       ncg     rms          rms(c)
DAV:   1    -0.606800326168E+03   -0.88222E-01   -0.39615E+01 13732   0.151E+01    0.290E+00
DAV:   2    -0.606954380461E+03   -0.15405E+00   -0.27140E+00 13312   0.357E+00    0.215E+00
DAV:   3    -0.606981107663E+03   -0.26727E-01   -0.53851E-01 17688   0.157E+00    0.197E+00
DAV:   4    -0.606980186417E+03    0.92125E-03   -0.90093E-01 14960   0.155E+00    0.177E+00
DAV:   5    -0.606980445993E+03   -0.25958E-03   -0.61301E-01 15900   0.133E+00    0.149E+00
DAV:   6    -0.606947448656E+03    0.32997E-01   -0.15222E-01 15932   0.842E-01    0.508E-01
DAV:   7    -0.606947204129E+03    0.24453E-03   -0.31308E-02 18040   0.360E-01    0.401E-01
DAV:   8    -0.606944098127E+03    0.31060E-02   -0.25714E-02 16936   0.255E-01    0.346E-01
DAV:   9    -0.606946356567E+03   -0.22584E-02   -0.63579E-03 16312   0.187E-01    0.211E-01
DAV:  10    -0.606946249918E+03    0.10665E-03   -0.25322E-03 18072   0.118E-01    0.187E-01
DAV:  11    -0.606946583853E+03   -0.33394E-03   -0.43326E-03 16760   0.119E-01    0.155E-01
DAV:  12    -0.606946114999E+03    0.46885E-03   -0.33366E-03 15844   0.101E-01    0.935E-02
DAV:  13    -0.606946449843E+03   -0.33484E-03   -0.36626E-04 14544   0.635E-02    0.313E-02
DAV:  14    -0.606946414487E+03    0.35356E-04   -0.76165E-05 11796   0.285E-02    0.218E-02
DAV:  15    -0.606946469338E+03   -0.54851E-04   -0.42407E-05  8816   0.164E-02    0.120E-02
DAV:  16    -0.606946436558E+03    0.32780E-04   -0.16296E-05  6860   0.106E-02    0.794E-03
DAV:  17    -0.606946460263E+03   -0.23705E-04   -0.54481E-06  6456   0.721E-03    0.372E-03
DAV:  18    -0.606946452037E+03    0.82260E-05   -0.21608E-06  6360   0.509E-03
   4 F= -.60694645E+03 E0= -.60694645E+03  d E =-.234356E+00
 trial-energy change:   -0.234356  1 .order   -0.227060   -0.311072   -0.143048
 step:   1.4636(harm=  1.6927)  dis= 0.05513  next Energy=  -606.991005 (dE=-0.279E+00)
 bond charge predicted
       N       E                     dE             d eps       ncg     rms          rms(c)
DAV:   1    -0.606950914890E+03   -0.44546E-02   -0.14294E+01 13848   0.901E+00    0.175E+00
DAV:   2    -0.607005378861E+03   -0.54464E-01   -0.98269E-01 13232   0.216E+00    0.134E+00
DAV:   3    -0.607021819278E+03   -0.16440E-01   -0.20680E-01 17752   0.102E+00    0.118E+00
DAV:   4    -0.607012970621E+03    0.88487E-02   -0.33307E-01 14968   0.102E+00    0.114E+00
DAV:   5    -0.607014936630E+03   -0.19660E-02   -0.22305E-01 14904   0.900E-01    0.102E+00
DAV:   6    -0.607002985965E+03    0.11951E-01   -0.12649E-01 15100   0.617E-01    0.458E-01
DAV:   7    -0.607003436700E+03   -0.45073E-03   -0.15376E-02 17248   0.305E-01    0.297E-01
DAV:   8    -0.607002820377E+03    0.61632E-03   -0.15522E-02 16624   0.181E-01    0.209E-01
DAV:   9    -0.607003120826E+03   -0.30045E-03   -0.13560E-03 18944   0.926E-02    0.138E-01
DAV:  10    -0.607003548791E+03   -0.42796E-03   -0.77967E-04 16656   0.778E-02    0.119E-01
DAV:  11    -0.607003676443E+03   -0.12765E-03   -0.56933E-04 16360   0.667E-02    0.558E-02
DAV:  12    -0.607003594448E+03    0.81995E-04   -0.28185E-04 14576   0.482E-02    0.389E-02
DAV:  13    -0.607003660411E+03   -0.65963E-04   -0.92732E-05 11152   0.294E-02    0.176E-02
DAV:  14    -0.607003648030E+03    0.12380E-04   -0.19833E-05  8360   0.150E-02    0.120E-02
DAV:  15    -0.607003630524E+03    0.17507E-04   -0.94655E-06  7032   0.105E-02    0.728E-03
DAV:  16    -0.607003612143E+03    0.18380E-04   -0.42175E-06  6384   0.630E-03    0.372E-03
DAV:  17    -0.607003615371E+03   -0.32278E-05   -0.22406E-06  6336   0.516E-03
   5 F= -.60700362E+03 E0= -.60700362E+03  d E =-.291519E+00
 curvature:  -0.87 expect dE=-0.115E+00 dE for cont linesearch -0.408E-02
 ZBRENT: extrapolating
 opt :   1.6676  next Energy=  -607.007939 (dE=-0.296E+00)
 bond charge predicted
       N       E                     dE             d eps       ncg     rms          rms(c)
DAV:   1    -0.607001750309E+03    0.18618E-02   -0.19702E+00 13752   0.334E+00    0.649E-01
DAV:   2    -0.607008232978E+03   -0.64827E-02   -0.13611E-01 13148   0.802E-01    0.504E-01
DAV:   3    -0.607013300903E+03   -0.50679E-02   -0.31453E-02 17596   0.398E-01    0.500E-01
DAV:   4    -0.607009022728E+03    0.42782E-02   -0.58900E-02 14712   0.434E-01    0.496E-01
DAV:   5    -0.607009834096E+03   -0.81137E-03   -0.31927E-02 14808   0.348E-01    0.366E-01
DAV:   6    -0.607008862288E+03    0.97181E-03   -0.10521E-02 16048   0.233E-01    0.159E-01
DAV:   7    -0.607008521603E+03    0.34068E-03   -0.30174E-03 17028   0.119E-01    0.925E-02
DAV:   8    -0.607009080682E+03   -0.55908E-03   -0.77998E-04 16088   0.640E-02    0.666E-02
DAV:   9    -0.607008867069E+03    0.21361E-03   -0.16206E-04 13772   0.301E-02    0.478E-02
DAV:  10    -0.607008945673E+03   -0.78605E-04   -0.73982E-05 10360   0.275E-02    0.400E-02
DAV:  11    -0.607008916375E+03    0.29299E-04   -0.81318E-05 10008   0.290E-02    0.191E-02
DAV:  12    -0.607008913307E+03    0.30681E-05   -0.21365E-05  7888   0.164E-02
   6 F= -.60700891E+03 E0= -.60700891E+03  d E =-.296817E+00
 curvature:  -0.92 expect dE=-0.153E+00 dE for cont linesearch -0.205E-05
 trial: gam= 0.48618 g(F)=  0.157E+00 g(S)=  0.104E-01 ort =-0.922E-03 (trialstep = 0.106E+01)
 search vector abs. value=  0.256E+00
 bond charge predicted
       N       E                     dE             d eps       ncg     rms          rms(c)
DAV:   1    -0.606883488569E+03    0.12543E+00   -0.40998E+01 12884   0.162E+01    0.210E+00
DAV:   2    -0.607100961181E+03   -0.21747E+00   -0.28514E+00 13128   0.380E+00    0.173E+00
DAV:   3    -0.607130866531E+03   -0.29905E-01   -0.46372E-01 19384   0.147E+00    0.157E+00
DAV:   4    -0.607114393781E+03    0.16473E-01   -0.44793E-01 15320   0.116E+00    0.127E+00
DAV:   5    -0.607116668486E+03   -0.22747E-02   -0.19953E-01 15624   0.924E-01    0.108E+00
DAV:   6    -0.607107281868E+03    0.93866E-02   -0.16012E-01 15936   0.771E-01    0.710E-01
DAV:   7    -0.607108574120E+03   -0.12923E-02   -0.85893E-02 14800   0.572E-01    0.549E-01
DAV:   8    -0.607104071485E+03    0.45026E-02   -0.30308E-02 15276   0.376E-01    0.219E-01
DAV:   9    -0.607104292476E+03   -0.22099E-03   -0.41801E-03 19544   0.152E-01    0.132E-01
DAV:  10    -0.607104447914E+03   -0.15544E-03   -0.94946E-04 16708   0.830E-02    0.889E-02
DAV:  11    -0.607104543153E+03   -0.95240E-04   -0.36509E-04 16656   0.662E-02    0.470E-02
DAV:  12    -0.607104512652E+03    0.30502E-04   -0.20365E-04 14940   0.528E-02    0.346E-02
DAV:  13    -0.607104577607E+03   -0.64955E-04   -0.62578E-05 10336   0.294E-02    0.129E-02
DAV:  14    -0.607104510091E+03    0.67516E-04   -0.18117E-05  8136   0.144E-02    0.904E-03
DAV:  15    -0.607104509699E+03    0.39266E-06   -0.88130E-06  6984   0.106E-02
   7 F= -.60710451E+03 E0= -.60710451E+03  d E =-.955964E-01
 trial-energy change:   -0.095596  1 .order   -0.097023   -0.177567   -0.016479
 step:   1.1807(harm=  1.1739)  dis= 0.03317  next Energy=  -607.105404 (dE=-0.965E-01)
 bond charge predicted
       N       E                     dE             d eps       ncg     rms          rms(c)
DAV:   1    -0.607103116585E+03    0.13935E-02   -0.48385E-01 12948   0.176E+00    0.228E-01
DAV:   2    -0.607104381799E+03   -0.12652E-02   -0.33038E-02 13208   0.412E-01    0.192E-01
DAV:   3    -0.607106661903E+03   -0.22801E-02   -0.68878E-03 18264   0.183E-01    0.209E-01
DAV:   4    -0.607104730113E+03    0.19318E-02   -0.52621E-03 15032   0.147E-01    0.130E-01
DAV:   5    -0.607104905844E+03   -0.17573E-03   -0.26887E-03 15544   0.115E-01    0.135E-01
DAV:   6    -0.607105082457E+03   -0.17661E-03   -0.24042E-03 15168   0.105E-01    0.677E-02
DAV:   7    -0.607104888457E+03    0.19400E-03   -0.60086E-04 14656   0.596E-02    0.416E-02
DAV:   8    -0.607105085839E+03   -0.19738E-03   -0.18563E-04 11260   0.347E-02    0.235E-02
DAV:   9    -0.607104917897E+03    0.16794E-03   -0.37416E-05  8260   0.185E-02    0.126E-02
DAV:  10    -0.607104962057E+03   -0.44160E-04   -0.10523E-05  7016   0.109E-02    0.779E-03
DAV:  11    -0.607104971933E+03   -0.98756E-05   -0.56964E-06  6628   0.821E-03
   8 F= -.60710497E+03 E0= -.60710497E+03  d E =-.960586E-01
 curvature:  -0.90 expect dE=-0.451E-01 dE for cont linesearch -0.956E-05
 trial: gam= 0.29626 g(F)=  0.497E-01 g(S)=  0.471E-03 ort =-0.165E-02 (trialstep = 0.109E+01)
 search vector abs. value=  0.717E-01
 bond charge predicted
       N       E                     dE             d eps       ncg     rms          rms(c)
DAV:   1    -0.607024180546E+03    0.80782E-01   -0.13482E+01 13220   0.109E+01    0.108E+00
DAV:   2    -0.607132108866E+03   -0.10793E+00   -0.13111E+00 12676   0.250E+00    0.918E-01
DAV:   3    -0.607143530976E+03   -0.11422E-01   -0.16825E-01 19312   0.949E-01    0.822E-01
DAV:   4    -0.607135090293E+03    0.84407E-02   -0.90749E-02 15712   0.587E-01    0.603E-01
DAV:   5    -0.607141838284E+03   -0.67480E-02   -0.73447E-02 15816   0.554E-01    0.662E-01
DAV:   6    -0.607135800766E+03    0.60375E-02   -0.57764E-02 15440   0.441E-01    0.350E-01
DAV:   7    -0.607134440491E+03    0.13603E-02   -0.25545E-02 15536   0.265E-01    0.302E-01
DAV:   8    -0.607134815196E+03   -0.37470E-03   -0.71130E-03 15056   0.185E-01    0.119E-01
DAV:   9    -0.607134994896E+03   -0.17970E-03   -0.39237E-03 19232   0.916E-02    0.128E-01
DAV:  10    -0.607135050301E+03   -0.55405E-04   -0.88984E-04 15936   0.742E-02    0.798E-02
DAV:  11    -0.607134840206E+03    0.21009E-03   -0.10748E-03 13680   0.436E-02    0.712E-02
DAV:  12    -0.607134935866E+03   -0.95660E-04   -0.15456E-04 11432   0.324E-02    0.311E-02
DAV:  13    -0.607134946753E+03   -0.10887E-04   -0.14858E-04  9152   0.239E-02    0.601E-02
DAV:  14    -0.607134954394E+03   -0.76409E-05   -0.27753E-04  7632   0.152E-02    0.308E-02
DAV:  15    -0.607134923508E+03    0.30885E-04   -0.23457E-05  7192   0.102E-02    0.174E-02
DAV:  16    -0.607134918639E+03    0.48698E-05   -0.16991E-05  6320   0.525E-03
   9 F= -.60713492E+03 E0= -.60713492E+03  d E =-.299467E-01
 trial-energy change:   -0.029947  1 .order   -0.026220   -0.054076    0.001637
 step:   1.0652(harm=  1.0561)  dis= 0.01448  next Energy=  -607.134936 (dE=-0.300E-01)
 bond charge predicted
       N       E                     dE             d eps       ncg     rms          rms(c)
DAV:   1    -0.607134791711E+03    0.13180E-03   -0.60173E-03 13152   0.229E-01    0.368E-02
DAV:   2    -0.607135174364E+03   -0.38265E-03   -0.30442E-03 14456   0.770E-02    0.145E-01
DAV:   3    -0.607134924111E+03    0.25025E-03   -0.69553E-04 12428   0.599E-02    0.225E-02
DAV:   4    -0.607134796395E+03    0.12772E-03   -0.30989E-04 10392   0.213E-02    0.720E-02
DAV:   5    -0.607134843469E+03   -0.47074E-04   -0.26053E-04  8040   0.150E-02    0.323E-02
DAV:   6    -0.607134912404E+03   -0.68935E-04   -0.47897E-05  7320   0.147E-02    0.180E-02
DAV:   7    -0.607134827967E+03    0.84437E-04   -0.59238E-05  6888   0.939E-03    0.375E-02
DAV:   8    -0.607134881656E+03   -0.53689E-04   -0.35337E-05  6320   0.644E-03    0.224E-02
DAV:   9    -0.607134901148E+03   -0.19492E-04   -0.56176E-05  6400   0.454E-03    0.351E-02
DAV:  10    -0.607134863890E+03    0.37258E-04   -0.12512E-05  6192   0.446E-03    0.139E-02
DAV:  11    -0.607134874462E+03   -0.10571E-04   -0.32793E-06  6152   0.265E-03    0.260E-02
DAV:  12    -0.607134881365E+03   -0.69031E-05   -0.11592E-05  6136   0.190E-03
  10 F= -.60713488E+03 E0= -.60713488E+03  d E =-.299094E-01
 curvature:  -0.70 expect dE=-0.749E-02 dE for cont linesearch -0.380E-06
 trial: gam= 0.20240 g(F)=  0.106E-01 g(S)=  0.681E-04 ort =-0.197E-03 (trialstep = 0.108E+01)
 search vector abs. value=  0.135E-01
 bond charge predicted
       N       E                     dE             d eps       ncg     rms          rms(c)
DAV:   1    -0.607112965362E+03    0.21909E-01   -0.25287E+00 13044   0.518E+00    0.433E-01
DAV:   2    -0.607141794365E+03   -0.28829E-01   -0.32013E-01 12504   0.121E+00    0.397E-01
DAV:   3    -0.607142629557E+03   -0.83519E-03   -0.51113E-02 19284   0.469E-01    0.429E-01
DAV:   4    -0.607141878649E+03    0.75091E-03   -0.36591E-02 15848   0.300E-01    0.312E-01
DAV:   5    -0.607141668424E+03    0.21023E-03   -0.10187E-02 16560   0.201E-01    0.248E-01
DAV:   6    -0.607143099013E+03   -0.14306E-02   -0.97225E-03 16536   0.168E-01    0.202E-01
DAV:   7    -0.607141121732E+03    0.19773E-02   -0.46416E-03 15488   0.147E-01    0.132E-01
DAV:   8    -0.607141728152E+03   -0.60642E-03   -0.11229E-03 15440   0.917E-02    0.615E-02
DAV:   9    -0.607141417003E+03    0.31115E-03   -0.45682E-04 15832   0.456E-02    0.865E-02
DAV:  10    -0.607141704683E+03   -0.28768E-03   -0.10073E-03 12488   0.395E-02    0.532E-02
DAV:  11    -0.607141509714E+03    0.19497E-03   -0.10096E-04  9408   0.299E-02    0.259E-02
DAV:  12    -0.607141538584E+03   -0.28870E-04   -0.28563E-05  7808   0.180E-02    0.200E-02
DAV:  13    -0.607141535521E+03    0.30620E-05   -0.16448E-05  7352   0.120E-02
  11 F= -.60714154E+03 E0= -.60714154E+03  d E =-.665416E-02
 trial-energy change:   -0.006654  1 .order   -0.006190   -0.011528   -0.000853
 step:   1.1513(harm=  1.1701)  dis= 0.00904  next Energy=  -607.141562 (dE=-0.668E-02)
 bond charge predicted
       N       E                     dE             d eps       ncg     rms          rms(c)
DAV:   1    -0.607141470515E+03    0.68069E-04   -0.99194E-03 13172   0.326E-01    0.274E-02
DAV:   2    -0.607141559602E+03   -0.89087E-04   -0.12951E-03 12764   0.771E-02    0.298E-02
DAV:   3    -0.607141623532E+03   -0.63930E-04   -0.26616E-04 14240   0.323E-02    0.376E-02
DAV:   4    -0.607141646628E+03   -0.23096E-04   -0.27936E-04  8824   0.198E-02    0.466E-02
DAV:   5    -0.607141568524E+03    0.78105E-04   -0.16047E-04  7680   0.164E-02    0.307E-02
DAV:   6    -0.607141579668E+03   -0.11145E-04   -0.10643E-04  7352   0.123E-02    0.497E-02
DAV:   7    -0.607141544264E+03    0.35404E-04   -0.14286E-04  7072   0.107E-02    0.155E-02
DAV:   8    -0.607141667133E+03   -0.12287E-03   -0.22045E-05  6880   0.113E-02    0.136E-02
DAV:   9    -0.607141567110E+03    0.10002E-03   -0.14370E-05  6520   0.910E-03    0.166E-02
DAV:  10    -0.607141586739E+03   -0.19630E-04   -0.12634E-05  6552   0.466E-03    0.893E-03
DAV:  11    -0.607141586607E+03    0.13266E-06   -0.10040E-06  6144   0.298E-03
  12 F= -.60714159E+03 E0= -.60714159E+03  d E =-.670524E-02
 curvature:  -0.71 expect dE=-0.247E-02 dE for cont linesearch -0.308E-05
 trial: gam= 0.29607 g(F)=  0.347E-02 g(S)=  0.184E-04 ort = 0.243E-03 (trialstep = 0.110E+01)
 search vector abs. value=  0.482E-02
 bond charge predicted
       N       E                     dE             d eps       ncg     rms          rms(c)
DAV:   1    -0.607140420064E+03    0.11667E-02   -0.95609E-01 12768   0.242E+00    0.287E-01
DAV:   2    -0.607144155304E+03   -0.37352E-02   -0.57780E-02 13236   0.535E-01    0.282E-01
DAV:   3    -0.607145372723E+03   -0.12174E-02   -0.21392E-02 16496   0.268E-01    0.356E-01
DAV:   4    -0.607144603676E+03    0.76905E-03   -0.22185E-02 15352   0.203E-01    0.192E-01
DAV:   5    -0.607143910808E+03    0.69287E-03   -0.41742E-03 17208   0.140E-01    0.176E-01
DAV:   6    -0.607145333955E+03   -0.14231E-02   -0.59205E-03 15152   0.147E-01    0.160E-01
DAV:   7    -0.607144305499E+03    0.10285E-02   -0.26420E-03 14904   0.105E-01    0.580E-02
DAV:   8    -0.607144768787E+03   -0.46329E-03   -0.36305E-04 15232   0.523E-02    0.455E-02
DAV:   9    -0.607144424230E+03    0.34456E-03   -0.20762E-04 10344   0.320E-02    0.309E-02
DAV:  10    -0.607144500571E+03   -0.76340E-04   -0.94333E-05  8616   0.222E-02    0.193E-02
DAV:  11    -0.607144494502E+03    0.60689E-05   -0.31061E-05  7952   0.176E-02
  13 F= -.60714449E+03 E0= -.60714449E+03  d E =-.290790E-02
 trial-energy change:   -0.002908  1 .order   -0.002842   -0.003906   -0.001777
 step:   1.7990(harm=  2.0130)  dis= 0.00603  next Energy=  -607.145080 (dE=-0.349E-02)
 bond charge predicted
       N       E                     dE             d eps       ncg     rms          rms(c)
DAV:   1    -0.607143527946E+03    0.97262E-03   -0.39153E-01 12812   0.155E+00    0.186E-01
DAV:   2    -0.607144781072E+03   -0.12531E-02   -0.26239E-02 13280   0.354E-01    0.229E-01
DAV:   3    -0.607145194534E+03   -0.41346E-03   -0.10791E-02 15292   0.201E-01    0.187E-01
DAV:   4    -0.607145260801E+03   -0.66267E-04   -0.39003E-03 16044   0.124E-01    0.951E-02
DAV:   5    -0.607144676480E+03    0.58432E-03   -0.88799E-04 16792   0.761E-02    0.800E-02
DAV:   6    -0.607145855664E+03   -0.11792E-02   -0.12691E-03 15120   0.853E-02    0.909E-02
DAV:   7    -0.607145152914E+03    0.70275E-03   -0.59412E-04 12936   0.609E-02    0.196E-02
DAV:   8    -0.607145128971E+03    0.23943E-04   -0.55841E-05 10120   0.196E-02    0.175E-02
DAV:   9    -0.607145086027E+03    0.42944E-04   -0.31583E-05  7912   0.164E-02    0.109E-02
DAV:  10    -0.607145078897E+03    0.71302E-05   -0.15585E-05  6928   0.107E-02
  14 F= -.60714508E+03 E0= -.60714508E+03  d E =-.349229E-02
 curvature:  -1.29 expect dE=-0.248E-02 dE for cont linesearch -0.403E-04
 ZBRENT: extrapolating
 opt :   2.0203  next Energy=  -607.145122 (dE=-0.354E-02)
 bond charge predicted
       N       E                     dE             d eps       ncg     rms          rms(c)
DAV:   1    -0.607144983603E+03    0.10242E-03   -0.38939E-02 12876   0.489E-01    0.587E-02
DAV:   2    -0.607144964134E+03    0.19469E-04   -0.25760E-03 13256   0.111E-01    0.722E-02
DAV:   3    -0.607145095705E+03   -0.13157E-03   -0.12195E-03 15152   0.648E-02    0.622E-02
DAV:   4    -0.607145164832E+03   -0.69127E-04   -0.36746E-04 11592   0.388E-02    0.289E-02
DAV:   5    -0.607144909497E+03    0.25534E-03   -0.93787E-05  9352   0.270E-02    0.289E-02
DAV:   6    -0.607145249909E+03   -0.34041E-03   -0.15127E-04  9088   0.310E-02    0.291E-02
DAV:   7    -0.607145072319E+03    0.17759E-03   -0.58791E-05  7856   0.218E-02    0.780E-03
DAV:   8    -0.607145111481E+03   -0.39161E-04   -0.13206E-05  6888   0.922E-03    0.704E-03
DAV:   9    -0.607145078569E+03    0.32912E-04   -0.50618E-06  6328   0.665E-03    0.317E-03
DAV:  10    -0.607145077344E+03    0.12251E-05   -0.19410E-06  6184   0.375E-03
  15 F= -.60714508E+03 E0= -.60714508E+03  d E =-.349074E-02
 curvature:  -1.37 expect dE=-0.324E-02 dE for cont linesearch -0.193E-07
 trial: gam= 0.69483 g(F)=  0.222E-02 g(S)=  0.144E-03 ort =-0.823E-05 (trialstep = 0.128E+01)
 search vector abs. value=  0.468E-02
 bond charge predicted
       N       E                     dE             d eps       ncg     rms          rms(c)
DAV:   1    -0.607140643775E+03    0.44348E-02   -0.12825E+00 12924   0.284E+00    0.390E-01
DAV:   2    -0.607145235737E+03   -0.45920E-02   -0.77245E-02 12844   0.651E-01    0.315E-01
DAV:   3    -0.607148715955E+03   -0.34802E-02   -0.29500E-02 17472   0.344E-01    0.469E-01
DAV:   4    -0.607145761245E+03    0.29547E-02   -0.36996E-02 14928   0.290E-01    0.208E-01
DAV:   5    -0.607145105023E+03    0.65622E-03   -0.10062E-02 16456   0.197E-01    0.234E-01
DAV:   6    -0.607146736581E+03   -0.16316E-02   -0.94973E-03 16116   0.199E-01    0.173E-01
DAV:   7    -0.607145900027E+03    0.83655E-03   -0.23623E-03 16632   0.115E-01    0.700E-02
DAV:   8    -0.607146084464E+03   -0.18444E-03   -0.67908E-04 16476   0.546E-02    0.533E-02
DAV:   9    -0.607145890494E+03    0.19397E-03   -0.18405E-04 11144   0.299E-02    0.306E-02
DAV:  10    -0.607146059890E+03   -0.16940E-03   -0.52470E-05 10052   0.210E-02    0.247E-02
DAV:  11    -0.607146010321E+03    0.49568E-04   -0.24260E-05  8480   0.177E-02    0.907E-03
DAV:  12    -0.607145968639E+03    0.41682E-04   -0.84479E-06  7188   0.116E-02    0.633E-03
DAV:  13    -0.607145976664E+03   -0.80246E-05   -0.43226E-06  6616   0.825E-03
  16 F= -.60714598E+03 E0= -.60714598E+03  d E =-.899320E-03
 trial-energy change:   -0.000899  1 .order   -0.001002   -0.003022    0.001018
 step:   0.9191(harm=  0.9586)  dis= 0.00303  next Energy=  -607.146123 (dE=-0.105E-02)
 bond charge predicted
       N       E                     dE             d eps       ncg     rms          rms(c)
DAV:   1    -0.607145671083E+03    0.29756E-03   -0.10270E-01 12888   0.805E-01    0.110E-01
DAV:   2    -0.607146368665E+03   -0.69758E-03   -0.61483E-03 12852   0.182E-01    0.841E-02
DAV:   3    -0.607145558274E+03    0.81039E-03   -0.11996E-03 17632   0.883E-02    0.948E-02
DAV:   4    -0.607146485423E+03   -0.92715E-03   -0.10863E-03 14272   0.752E-02    0.537E-02
DAV:   5    -0.607146183451E+03    0.30197E-03   -0.50526E-04 13376   0.509E-02    0.536E-02
DAV:   6    -0.607145985526E+03    0.19792E-03   -0.56445E-04 12144   0.476E-02    0.385E-02
DAV:   7    -0.607146086562E+03   -0.10104E-03   -0.14293E-04  9392   0.298E-02    0.147E-02
DAV:   8    -0.607146146930E+03   -0.60368E-04   -0.14582E-05  7680   0.123E-02    0.894E-03
DAV:   9    -0.607146114261E+03    0.32669E-04   -0.71499E-06  6592   0.771E-03    0.768E-03
DAV:  10    -0.607146121039E+03   -0.67774E-05   -0.93346E-06  6600   0.786E-03
  17 F= -.60714612E+03 E0= -.60714612E+03  d E =-.104369E-02
 curvature:  -0.94 expect dE=-0.519E-03 dE for cont linesearch -0.123E-05
 trial: gam= 0.18223 g(F)=  0.532E-03 g(S)=  0.225E-04 ort = 0.782E-04 (trialstep = 0.121E+01)
 search vector abs. value=  0.738E-03
 bond charge predicted
       N       E                     dE             d eps       ncg     rms          rms(c)
DAV:   1    -0.607145309136E+03    0.80513E-03   -0.21271E-01 12952   0.125E+00    0.122E-01
DAV:   2    -0.607145915361E+03   -0.60623E-03   -0.15978E-02 12964   0.278E-01    0.111E-01
DAV:   3    -0.607147129820E+03   -0.12145E-02   -0.38566E-03 17516   0.135E-01    0.149E-01
DAV:   4    -0.607146423270E+03    0.70655E-03   -0.25271E-03 14580   0.899E-02    0.655E-02
DAV:   5    -0.607146250627E+03    0.17264E-03   -0.61478E-04 14996   0.500E-02    0.641E-02
DAV:   6    -0.607146353913E+03   -0.10329E-03   -0.53445E-04 13992   0.485E-02    0.477E-02
DAV:   7    -0.607146436321E+03   -0.82407E-04   -0.16900E-04 11720   0.352E-02    0.162E-02
DAV:   8    -0.607146340268E+03    0.96053E-04   -0.30781E-05  8232   0.160E-02    0.131E-02
DAV:   9    -0.607146419377E+03   -0.79109E-04   -0.21712E-05  7104   0.131E-02    0.109E-02
DAV:  10    -0.607146343635E+03    0.75743E-04   -0.12340E-05  6736   0.994E-03    0.776E-03
DAV:  11    -0.607146379504E+03   -0.35869E-04   -0.54023E-06  6624   0.791E-03    0.414E-03
DAV:  12    -0.607146385842E+03   -0.63388E-05   -0.21224E-06  6256   0.476E-03
  18 F= -.60714639E+03 E0= -.60714639E+03  d E =-.264804E-03
 trial-energy change:   -0.000265  1 .order   -0.000372   -0.000687   -0.000056
 step:   1.3161(harm=  1.3161)  dis= 0.00204  next Energy=  -607.146495 (dE=-0.374E-03)
 bond charge predicted
       N       E                     dE             d eps       ncg     rms          rms(c)
DAV:   1    -0.607146376150E+03    0.33538E-05   -0.16615E-03 12932   0.110E-01    0.108E-02
DAV:   2    -0.607146339610E+03    0.36540E-04   -0.12512E-04 12752   0.249E-02    0.986E-03
DAV:   3    -0.607146403577E+03   -0.63967E-04   -0.24361E-05  7560   0.117E-02    0.116E-02
DAV:   4    -0.607146366962E+03    0.36615E-04   -0.13139E-05  6440   0.840E-03    0.506E-03
DAV:   5    -0.607146363165E+03    0.37971E-05   -0.55875E-06  6384   0.544E-03
  19 F= -.60714636E+03 E0= -.60714636E+03  d E =-.242126E-03
 curvature:  -0.85 expect dE=-0.281E-03 dE for cont linesearch -0.200E-06
 trial: gam= 0.60717 g(F)=  0.316E-03 g(S)=  0.122E-04 ort = 0.131E-04 (trialstep = 0.123E+01)
 search vector abs. value=  0.617E-03
 bond charge predicted
       N       E                     dE             d eps       ncg     rms          rms(c)
DAV:   1    -0.607145750359E+03    0.61660E-03   -0.19640E-01 12804   0.112E+00    0.106E-01
DAV:   2    -0.607146353184E+03   -0.60282E-03   -0.10934E-02 13140   0.229E-01    0.984E-02
DAV:   3    -0.607147290449E+03   -0.93727E-03   -0.29630E-03 17968   0.121E-01    0.127E-01
DAV:   4    -0.607146607323E+03    0.68313E-03   -0.19005E-03 14440   0.787E-02    0.564E-02
DAV:   5    -0.607146564469E+03    0.42854E-04   -0.63546E-04 14348   0.475E-02    0.615E-02
DAV:   6    -0.607146657967E+03   -0.93498E-04   -0.36229E-04 12952   0.393E-02    0.320E-02
DAV:   7    -0.607146775675E+03   -0.11771E-03   -0.85326E-05  9672   0.272E-02    0.197E-02
DAV:   8    -0.607146607710E+03    0.16797E-03   -0.51169E-05  7824   0.185E-02    0.132E-02
DAV:   9    -0.607146666909E+03   -0.59199E-04   -0.19886E-05  6936   0.121E-02    0.771E-03
DAV:  10    -0.607146653246E+03    0.13663E-04   -0.52120E-06  6560   0.731E-03    0.513E-03
DAV:  11    -0.607146662929E+03   -0.96825E-05   -0.24699E-06  6296   0.515E-03
  20 F= -.60714666E+03 E0= -.60714666E+03  d E =-.299764E-03
 trial-energy change:   -0.000300  1 .order   -0.000250   -0.000414   -0.000086
 step:   1.3911(harm=  1.5555)  dis= 0.00185  next Energy=  -607.146669 (dE=-0.306E-03)
 bond charge predicted
       N       E                     dE             d eps       ncg     rms          rms(c)
DAV:   1    -0.607146649871E+03    0.33755E-05   -0.33473E-03 12636   0.146E-01    0.138E-02
DAV:   2    -0.607146635189E+03    0.14682E-04   -0.18728E-04 12924   0.306E-02    0.127E-02
DAV:   3    -0.607146745913E+03   -0.11072E-03   -0.38915E-05  8120   0.158E-02    0.147E-02
DAV:   4    -0.607146648738E+03    0.97175E-04   -0.23087E-05  6864   0.110E-02    0.666E-03
DAV:   5    -0.607146659082E+03   -0.10344E-04   -0.10155E-05  6708   0.735E-03    0.808E-03
DAV:   6    -0.607146702396E+03   -0.43314E-04   -0.86323E-06  6392   0.690E-03    0.501E-03
DAV:   7    -0.607146671157E+03    0.31239E-04   -0.26885E-06  6280   0.444E-03    0.207E-03
DAV:   8    -0.607146664837E+03    0.63204E-05   -0.10113E-06  6092   0.273E-03
  21 F= -.60714666E+03 E0= -.60714666E+03  d E =-.301672E-03
 curvature:  -1.06 expect dE=-0.210E-03 dE for cont linesearch -0.275E-05
 ZBRENT: increasing intervall
 opt :   1.7120  next Energy=  -607.146668 (dE=-0.305E-03)
 bond charge predicted
       N       E                     dE             d eps       ncg     rms          rms(c)
DAV:   1    -0.607146616558E+03    0.54599E-04   -0.13353E-02 12836   0.292E-01    0.273E-02
DAV:   2    -0.607146570127E+03    0.46431E-04   -0.75091E-04 13192   0.598E-02    0.263E-02
DAV:   3    -0.607146842178E+03   -0.27205E-03   -0.19912E-04 11768   0.314E-02    0.317E-02
DAV:   4    -0.607146658755E+03    0.18342E-03   -0.10021E-04  8248   0.210E-02    0.126E-02
DAV:   5    -0.607146617080E+03    0.41675E-04   -0.36863E-05  7444   0.138E-02    0.165E-02
DAV:   6    -0.607146710389E+03   -0.93309E-04   -0.28309E-05  7148   0.131E-02    0.699E-03
DAV:   7    -0.607146681158E+03    0.29231E-04   -0.66593E-06  6636   0.715E-03    0.414E-03
DAV:   8    -0.607146664650E+03    0.16509E-04   -0.37021E-06  6168   0.515E-03    0.329E-03
DAV:   9    -0.607146674810E+03   -0.10160E-04   -0.17756E-06  6064   0.348E-03    0.217E-03
DAV:  10    -0.607146673708E+03    0.11021E-05   -0.77841E-07  6028   0.259E-03
  22 F= -.60714667E+03 E0= -.60714667E+03  d E =-.310543E-03
 curvature:  -1.21 expect dE=-0.356E-03 dE for cont linesearch -0.196E-05
 trial: gam= 0.97747 g(F)=  0.274E-03 g(S)=  0.221E-04 ort =-0.317E-04 (trialstep = 0.994E+00)
 search vector abs. value=  0.823E-03
 bond charge predicted
       N       E                     dE             d eps       ncg     rms          rms(c)
DAV:   1    -0.607146325133E+03    0.34968E-03   -0.17147E-01 12768   0.974E-01    0.901E-02
DAV:   2    -0.607146363261E+03   -0.38128E-04   -0.76145E-03 12504   0.195E-01    0.821E-02
DAV:   3    -0.607147436013E+03   -0.10728E-02   -0.21389E-03 18264   0.991E-02    0.109E-01
DAV:   4    -0.607146769816E+03    0.66620E-03   -0.12270E-03 14040   0.674E-02    0.419E-02
DAV:   5    -0.607146520761E+03    0.24905E-03   -0.30631E-04 12780   0.414E-02    0.503E-02
DAV:   6    -0.607146809842E+03   -0.28908E-03   -0.26212E-04 12348   0.403E-02    0.261E-02
DAV:   7    -0.607146786885E+03    0.22957E-04   -0.65344E-05  8752   0.238E-02    0.113E-02
DAV:   8    -0.607146771547E+03    0.15338E-04   -0.12854E-05  6980   0.117E-02    0.610E-03
DAV:   9    -0.607146742917E+03    0.28630E-04   -0.50055E-06  6496   0.748E-03    0.506E-03
DAV:  10    -0.607146754451E+03   -0.11535E-04   -0.31963E-06  6316   0.570E-03    0.372E-03
DAV:  11    -0.607146749973E+03    0.44788E-05   -0.29591E-06  6260   0.445E-03
  23 F= -.60714675E+03 E0= -.60714675E+03  d E =-.762649E-04
 trial-energy change:   -0.000076  1 .order   -0.000166   -0.000263   -0.000069
 step:   1.3480(harm=  1.3480)  dis= 0.00193  next Energy=  -607.146852 (dE=-0.178E-03)
 bond charge predicted
       N       E                     dE             d eps       ncg     rms          rms(c)
DAV:   1    -0.607146725447E+03    0.29004E-04   -0.21727E-02 12804   0.346E-01    0.322E-02
DAV:   2    -0.607146590402E+03    0.13504E-03   -0.96903E-04 12480   0.697E-02    0.301E-02
DAV:   3    -0.607146959541E+03   -0.36914E-03   -0.25673E-04 12972   0.355E-02    0.377E-02
DAV:   4    -0.607146731529E+03    0.22801E-03   -0.14383E-04  8704   0.254E-02    0.155E-02
DAV:   5    -0.607146661264E+03    0.70265E-04   -0.43855E-05  7560   0.160E-02    0.182E-02
DAV:   6    -0.607146750418E+03   -0.89153E-04   -0.39006E-05  7328   0.157E-02    0.918E-03
DAV:   7    -0.607146737166E+03    0.13251E-04   -0.10837E-05  6808   0.101E-02    0.455E-03
DAV:   8    -0.607146738716E+03   -0.15499E-05   -0.34703E-06  6248   0.590E-03
  24 F= -.60714674E+03 E0= -.60714674E+03  d E =-.650085E-04
 curvature:  -2.10 expect dE=-0.398E-03 dE for cont linesearch -0.643E-06
 trial: gam= 0.42569 g(F)=  0.188E-03 g(S)=  0.176E-05 ort = 0.159E-04 (trialstep = 0.106E+01)
 search vector abs. value=  0.353E-03
 bond charge predicted
       N       E                     dE             d eps       ncg     rms          rms(c)
DAV:   1    -0.607146481228E+03    0.25594E-03   -0.83795E-02 12784   0.781E-01    0.634E-02
DAV:   2    -0.607146815456E+03   -0.33423E-03   -0.57492E-03 13164   0.165E-01    0.812E-02
DAV:   3    -0.607146942248E+03   -0.12679E-03   -0.16489E-03 16024   0.828E-02    0.644E-02
DAV:   4    -0.607147036602E+03   -0.94353E-04   -0.47433E-04 13856   0.433E-02    0.325E-02
DAV:   5    -0.607146665051E+03    0.37155E-03   -0.20069E-04 10152   0.327E-02    0.372E-02
DAV:   6    -0.607146923020E+03   -0.25797E-03   -0.13544E-04 10224   0.286E-02    0.210E-02
DAV:   7    -0.607146919564E+03    0.34557E-05   -0.34563E-05  7936   0.191E-02
  25 F= -.60714692E+03 E0= -.60714692E+03  d E =-.180848E-03
 trial-energy change:   -0.000181  1 .order   -0.000154   -0.000210   -0.000098
 step:   2.0036(harm=  2.0036)  dis= 0.00167  next Energy=  -607.146936 (dE=-0.197E-03)
 bond charge predicted
       N       E                     dE             d eps       ncg     rms          rms(c)
DAV:   1    -0.607146563924E+03    0.35910E-03   -0.64793E-02 12808   0.688E-01    0.573E-02
DAV:   2    -0.607146908917E+03   -0.34499E-03   -0.46252E-03 13328   0.147E-01    0.789E-02
DAV:   3    -0.607146909869E+03   -0.95169E-06   -0.13901E-03 15452   0.777E-02    0.552E-02
DAV:   4    -0.607146995423E+03   -0.85554E-04   -0.36692E-04 13760   0.395E-02    0.318E-02
DAV:   5    -0.607146787777E+03    0.20765E-03   -0.16912E-04  9904   0.271E-02    0.318E-02
DAV:   6    -0.607146973787E+03   -0.18601E-03   -0.10598E-04  9276   0.254E-02    0.197E-02
DAV:   7    -0.607146850432E+03    0.12336E-03   -0.43767E-05  7704   0.200E-02    0.121E-02
DAV:   8    -0.607146943813E+03   -0.93381E-04   -0.23720E-05  7156   0.130E-02    0.772E-03
DAV:   9    -0.607146883496E+03    0.60317E-04   -0.65423E-06  6372   0.722E-03    0.377E-03
DAV:  10    -0.607146897440E+03   -0.13944E-04   -0.21573E-06  6156   0.441E-03    0.294E-03
DAV:  11    -0.607146900174E+03   -0.27338E-05   -0.12929E-06  6128   0.342E-03
  26 F= -.60714690E+03 E0= -.60714690E+03  d E =-.161458E-03
 curvature:  -1.79 expect dE=-0.265E-03 dE for cont linesearch -0.139E-04
 ZBRENT: interpolating
 opt :   1.6642  next Energy=  -607.146909 (dE=-0.170E-03)
 bond charge predicted
       N       E                     dE             d eps       ncg     rms          rms(c)
DAV:   1    -0.607146826785E+03    0.70655E-04   -0.85098E-03 12812   0.249E-01    0.203E-02
DAV:   2    -0.607146938557E+03   -0.11177E-03   -0.58199E-04 13216   0.528E-02    0.255E-02
DAV:   3    -0.607146900177E+03    0.38380E-04   -0.14328E-04 10168   0.269E-02    0.187E-02
DAV:   4    -0.607146844012E+03    0.56164E-04   -0.40211E-05  7420   0.145E-02    0.108E-02
DAV:   5    -0.607146970237E+03   -0.12622E-03   -0.21774E-05  6720   0.112E-02    0.115E-02
DAV:   6    -0.607146905638E+03    0.64598E-04   -0.13635E-05  6684   0.972E-03    0.685E-03
DAV:   7    -0.607146897423E+03    0.82154E-05   -0.44746E-06  6544   0.682E-03
  27 F= -.60714690E+03 E0= -.60714690E+03  d E =-.158707E-03
 curvature:  -1.15 expect dE=-0.104E-03 dE for cont linesearch -0.119E-05
 ZBRENT: interpolating
 opt :   1.5015  next Energy=  -607.146899 (dE=-0.161E-03)
 bond charge predicted
       N       E                     dE             d eps       ncg     rms          rms(c)
DAV:   1    -0.607146881181E+03    0.24457E-04   -0.19378E-03 12680   0.119E-01    0.104E-02
DAV:   2    -0.607146898516E+03   -0.17335E-04   -0.14654E-04 13104   0.266E-02    0.142E-02
DAV:   3    -0.607146909685E+03   -0.11169E-04   -0.37947E-05  7808   0.147E-02    0.926E-03
DAV:   4    -0.607146882243E+03    0.27442E-04   -0.10295E-05  6364   0.788E-03    0.557E-03
DAV:   5    -0.607146920936E+03   -0.38693E-04   -0.65992E-06  6032   0.581E-03    0.589E-03
DAV:   6    -0.607146897779E+03    0.23156E-04   -0.39594E-06  5972   0.510E-03    0.356E-03
DAV:   7    -0.607146908105E+03   -0.10326E-04   -0.13549E-06  5932   0.381E-03    0.160E-03
DAV:   8    -0.607146893812E+03    0.14294E-04   -0.82274E-07  5932   0.248E-03    0.146E-03
DAV:   9    -0.607146903505E+03   -0.96936E-05   -0.41775E-07  5932   0.177E-03
  28 F= -.60714690E+03 E0= -.60714690E+03  d E =-.164789E-03
 curvature:  -1.76 expect dE=-0.124E-03 dE for cont linesearch -0.469E-06
 trial: gam= 0.35959 g(F)=  0.654E-04 g(S)=  0.509E-05 ort = 0.971E-05 (trialstep = 0.115E+01)
 search vector abs. value=  0.123E-03
 bond charge predicted
       N       E                     dE             d eps       ncg     rms          rms(c)
DAV:   1    -0.607146716137E+03    0.17767E-03   -0.33476E-02 12932   0.538E-01    0.519E-02
DAV:   2    -0.607147046725E+03   -0.33059E-03   -0.31423E-03 13312   0.118E-01    0.432E-02
DAV:   3    -0.607146975511E+03    0.71214E-04   -0.72062E-04 15448   0.568E-02    0.583E-02
DAV:   4    -0.607146993711E+03   -0.18199E-04   -0.36878E-04 12044   0.383E-02    0.223E-02
DAV:   5    -0.607146942323E+03    0.51387E-04   -0.88633E-05  9216   0.215E-02    0.272E-02
DAV:   6    -0.607147150964E+03   -0.20864E-03   -0.11891E-04  8672   0.243E-02    0.218E-02
DAV:   7    -0.607146975959E+03    0.17501E-03   -0.34934E-05  7556   0.162E-02    0.624E-03
DAV:   8    -0.607147032874E+03   -0.56915E-04   -0.82168E-06  6640   0.765E-03    0.617E-03
DAV:   9    -0.607146999874E+03    0.33000E-04   -0.46971E-06  6252   0.600E-03    0.401E-03
DAV:  10    -0.607147005940E+03   -0.60661E-05   -0.19479E-06  6128   0.429E-03
  29 F= -.60714701E+03 E0= -.60714701E+03  d E =-.102435E-03
 trial-energy change:   -0.000102  1 .order   -0.000046   -0.000085   -0.000006
 step:   1.1696(harm=  1.2455)  dis= 0.00081  next Energy=  -607.147006 (dE=-0.102E-03)
 reached required accuracy - stopping structural energy minimisation
 writing wavefunctions
