  20  20   0   0
  0.1253175E+02  0.9733633E-09  0.9733633E-09  0.9733633E-09  0.5000000E-15
  1.000000000000000E-004
  CAR 
 unknown system                          
     13.65020873    -55.15998594  301      6.48925126      1.00000000
    -55.160  0.0000E+00  0.0000E+00
    -54.931  0.0000E+00  0.0000E+00
    -54.701  0.0000E+00  0.0000E+00
    -54.472  0.0000E+00  0.0000E+00
    -54.243  0.0000E+00  0.0000E+00
    -54.013  0.0000E+00  0.0000E+00
    -53.784  0.0000E+00  0.0000E+00
    -53.554  0.0000E+00  0.0000E+00
    -53.325  0.0000E+00  0.0000E+00
    -53.096  0.0000E+00  0.0000E+00
    -52.866  0.0000E+00  0.0000E+00
    -52.637  0.0000E+00  0.0000E+00
    -52.408  0.0000E+00  0.0000E+00
    -52.178  0.0000E+00  0.0000E+00
    -51.949  0.0000E+00  0.6000E+01
    -51.719  0.0000E+00  0.6000E+01
    -51.490  0.0000E+00  0.6000E+01
    -51.261  0.0000E+00  0.6000E+01
    -51.031  0.0000E+00  0.6000E+01
    -50.802  0.0000E+00  0.6000E+01
    -50.573  0.0000E+00  0.6000E+01
    -50.343  0.0000E+00  0.8000E+01
    -50.114  0.0000E+00  0.8000E+01
    -49.885  0.0000E+00  0.8000E+01
    -49.655  0.0000E+00  0.8000E+01
    -49.426  0.0000E+00  0.8000E+01
    -49.196  0.0000E+00  0.8000E+01
    -48.967  0.0000E+00  0.8000E+01
    -48.738  0.0000E+00  0.8000E+01
    -48.508  0.0000E+00  0.8000E+01
    -48.279  0.0000E+00  0.8000E+01
    -48.050  0.0000E+00  0.8000E+01
    -47.820  0.0000E+00  0.8000E+01
    -47.591  0.0000E+00  0.8000E+01
    -47.361  0.0000E+00  0.8000E+01
    -47.132  0.0000E+00  0.8000E+01
    -46.903  0.0000E+00  0.8000E+01
    -46.673  0.0000E+00  0.8000E+01
    -46.444  0.0000E+00  0.8000E+01
    -46.215  0.0000E+00  0.8000E+01
    -45.985  0.0000E+00  0.8000E+01
    -45.756  0.0000E+00  0.8000E+01
    -45.527  0.0000E+00  0.8000E+01
    -45.297  0.0000E+00  0.8000E+01
    -45.068  0.0000E+00  0.8000E+01
    -44.838  0.0000E+00  0.8000E+01
    -44.609  0.0000E+00  0.8000E+01
    -44.380  0.0000E+00  0.8000E+01
    -44.150  0.0000E+00  0.8000E+01
    -43.921  0.0000E+00  0.8000E+01
    -43.692  0.0000E+00  0.8000E+01
    -43.462  0.0000E+00  0.8000E+01
    -43.233  0.0000E+00  0.8000E+01
    -43.004  0.0000E+00  0.8000E+01
    -42.774  0.0000E+00  0.8000E+01
    -42.545  0.0000E+00  0.8000E+01
    -42.315  0.0000E+00  0.8000E+01
    -42.086  0.0000E+00  0.8000E+01
    -41.857  0.0000E+00  0.8000E+01
    -41.627  0.0000E+00  0.8000E+01
    -41.398  0.0000E+00  0.8000E+01
    -41.169  0.0000E+00  0.8000E+01
    -40.939  0.0000E+00  0.8000E+01
    -40.710  0.0000E+00  0.8000E+01
    -40.480  0.0000E+00  0.8000E+01
    -40.251  0.0000E+00  0.8000E+01
    -40.022  0.0000E+00  0.8000E+01
    -39.792  0.0000E+00  0.8000E+01
    -39.563  0.0000E+00  0.8000E+01
    -39.334  0.0000E+00  0.8000E+01
    -39.104  0.0000E+00  0.8000E+01
    -38.875  0.0000E+00  0.8000E+01
    -38.646  0.0000E+00  0.8000E+01
    -38.416  0.0000E+00  0.8000E+01
    -38.187  0.0000E+00  0.8000E+01
    -37.957  0.0000E+00  0.8000E+01
    -37.728  0.0000E+00  0.8000E+01
    -37.499  0.0000E+00  0.8000E+01
    -37.269  0.0000E+00  0.8000E+01
    -37.040  0.0000E+00  0.8000E+01
    -36.811  0.0000E+00  0.8000E+01
    -36.581  0.0000E+00  0.8000E+01
    -36.352  0.0000E+00  0.8000E+01
    -36.122  0.0000E+00  0.8000E+01
    -35.893  0.0000E+00  0.8000E+01
    -35.664  0.0000E+00  0.8000E+01
    -35.434  0.0000E+00  0.8000E+01
    -35.205  0.0000E+00  0.8000E+01
    -34.976  0.0000E+00  0.8000E+01
    -34.746  0.0000E+00  0.8000E+01
    -34.517  0.0000E+00  0.8000E+01
    -34.288  0.0000E+00  0.8000E+01
    -34.058  0.0000E+00  0.8000E+01
    -33.829  0.0000E+00  0.8000E+01
    -33.599  0.0000E+00  0.8000E+01
    -33.370  0.0000E+00  0.8000E+01
    -33.141  0.0000E+00  0.8000E+01
    -32.911  0.0000E+00  0.8000E+01
    -32.682  0.0000E+00  0.8000E+01
    -32.453  0.0000E+00  0.8000E+01
    -32.223  0.0000E+00  0.8000E+01
    -31.994  0.0000E+00  0.8000E+01
    -31.765  0.0000E+00  0.8000E+01
    -31.535  0.0000E+00  0.8000E+01
    -31.306  0.0000E+00  0.8000E+01
    -31.076  0.0000E+00  0.8000E+01
    -30.847  0.0000E+00  0.8000E+01
    -30.618  0.0000E+00  0.8000E+01
    -30.388  0.0000E+00  0.8000E+01
    -30.159  0.0000E+00  0.8000E+01
    -29.930  0.0000E+00  0.8000E+01
    -29.700  0.0000E+00  0.8000E+01
    -29.471  0.0000E+00  0.8000E+01
    -29.241  0.0000E+00  0.8000E+01
    -29.012  0.0000E+00  0.8000E+01
    -28.783  0.0000E+00  0.1600E+02
    -28.553  0.0000E+00  0.1600E+02
    -28.324  0.8494E+03  0.1998E+02
    -28.095  0.0000E+00  0.3400E+02
    -27.865  0.0000E+00  0.3400E+02
    -27.636  0.0000E+00  0.3400E+02
    -27.407  0.0000E+00  0.3400E+02
    -27.177  0.0000E+00  0.3400E+02
    -26.948  0.0000E+00  0.3400E+02
    -26.718  0.0000E+00  0.3400E+02
    -26.489  0.0000E+00  0.4000E+02
    -26.260  0.0000E+00  0.4000E+02
    -26.030  0.0000E+00  0.4000E+02
    -25.801  0.0000E+00  0.4000E+02
    -25.572  0.0000E+00  0.4000E+02
    -25.342  0.0000E+00  0.4000E+02
    -25.113  0.0000E+00  0.4000E+02
    -24.884  0.0000E+00  0.4000E+02
    -24.654  0.0000E+00  0.4000E+02
    -24.425  0.0000E+00  0.4000E+02
    -24.195  0.0000E+00  0.4000E+02
    -23.966  0.0000E+00  0.4000E+02
    -23.737  0.0000E+00  0.4000E+02
    -23.507  0.0000E+00  0.4000E+02
    -23.278  0.0000E+00  0.4000E+02
    -23.049  0.0000E+00  0.4000E+02
    -22.819  0.0000E+00  0.4000E+02
    -22.590  0.0000E+00  0.4000E+02
    -22.360  0.0000E+00  0.4000E+02
    -22.131  0.0000E+00  0.4000E+02
    -21.902  0.0000E+00  0.4000E+02
    -21.672  0.0000E+00  0.4000E+02
    -21.443  0.0000E+00  0.4000E+02
    -21.214  0.0000E+00  0.4000E+02
    -20.984  0.0000E+00  0.4000E+02
    -20.755  0.0000E+00  0.4000E+02
    -20.526  0.0000E+00  0.4000E+02
    -20.296  0.0000E+00  0.4000E+02
    -20.067  0.0000E+00  0.4000E+02
    -19.837  0.0000E+00  0.4000E+02
    -19.608  0.0000E+00  0.4000E+02
    -19.379  0.0000E+00  0.4000E+02
    -19.149  0.0000E+00  0.4000E+02
    -18.920  0.0000E+00  0.4000E+02
    -18.691  0.0000E+00  0.4000E+02
    -18.461  0.0000E+00  0.4000E+02
    -18.232  0.0000E+00  0.4000E+02
    -18.002  0.0000E+00  0.4000E+02
    -17.773  0.0000E+00  0.4000E+02
    -17.544  0.0000E+00  0.4000E+02
    -17.314  0.0000E+00  0.4000E+02
    -17.085  0.0000E+00  0.4000E+02
    -16.856  0.0000E+00  0.4000E+02
    -16.626  0.0000E+00  0.4000E+02
    -16.397  0.0000E+00  0.4000E+02
    -16.168  0.0000E+00  0.4000E+02
    -15.938  0.0000E+00  0.4000E+02
    -15.709  0.0000E+00  0.4000E+02
    -15.479  0.0000E+00  0.4000E+02
    -15.250  0.0000E+00  0.4000E+02
    -15.021  0.0000E+00  0.4000E+02
    -14.791  0.0000E+00  0.4000E+02
    -14.562  0.0000E+00  0.4000E+02
    -14.333  0.0000E+00  0.4000E+02
    -14.103  0.0000E+00  0.4000E+02
    -13.874  0.0000E+00  0.4000E+02
    -13.645  0.0000E+00  0.4000E+02
    -13.415  0.4089E+01  0.4010E+02
    -13.186  0.1138E+02  0.4234E+02
    -12.956  0.8231E+01  0.4506E+02
    -12.727  0.6818E+01  0.4673E+02
    -12.498  0.1403E+02  0.4995E+02
    -12.268  0.4202E+02  0.5437E+02
    -12.039  0.1695E+02  0.6371E+02
    -11.810  0.0000E+00  0.6400E+02
    -11.580  0.0000E+00  0.6400E+02
    -11.351  0.0000E+00  0.6400E+02
    -11.121  0.1140E+01  0.6401E+02
    -10.892  0.1283E+03  0.7020E+02
    -10.663  0.2965E+02  0.7993E+02
    -10.433  0.1952E+02  0.8760E+02
    -10.204  0.0000E+00  0.8800E+02
     -9.975  0.0000E+00  0.8800E+02
     -9.745  0.0000E+00  0.8800E+02
     -9.516  0.0000E+00  0.8800E+02
     -9.287  0.0000E+00  0.8800E+02
     -9.057  0.0000E+00  0.8800E+02
     -8.828  0.0000E+00  0.8800E+02
     -8.598  0.0000E+00  0.8800E+02
     -8.369  0.0000E+00  0.8800E+02
     -8.140  0.0000E+00  0.8800E+02
     -7.910  0.0000E+00  0.8800E+02
     -7.681  0.0000E+00  0.8800E+02
     -7.452  0.0000E+00  0.8800E+02
     -7.222  0.0000E+00  0.8800E+02
     -6.993  0.0000E+00  0.8800E+02
     -6.763  0.0000E+00  0.8800E+02
     -6.534  0.0000E+00  0.8800E+02
     -6.305  0.0000E+00  0.8800E+02
     -6.075  0.0000E+00  0.8800E+02
     -5.846  0.0000E+00  0.8800E+02
     -5.617  0.0000E+00  0.8800E+02
     -5.387  0.0000E+00  0.8800E+02
     -5.158  0.0000E+00  0.8800E+02
     -4.929  0.0000E+00  0.8800E+02
     -4.699  0.0000E+00  0.8800E+02
     -4.470  0.0000E+00  0.8800E+02
     -4.240  0.0000E+00  0.8800E+02
     -4.011  0.0000E+00  0.8800E+02
     -3.782  0.0000E+00  0.8800E+02
     -3.552  0.0000E+00  0.8800E+02
     -3.323  0.0000E+00  0.8800E+02
     -3.094  0.0000E+00  0.8800E+02
     -2.864  0.0000E+00  0.8800E+02
     -2.635  0.0000E+00  0.8800E+02
     -2.406  0.0000E+00  0.8800E+02
     -2.176  0.0000E+00  0.8800E+02
     -1.947  0.0000E+00  0.8800E+02
     -1.717  0.0000E+00  0.8800E+02
     -1.488  0.0000E+00  0.8800E+02
     -1.259  0.0000E+00  0.8800E+02
     -1.029  0.0000E+00  0.8800E+02
     -0.800  0.0000E+00  0.8800E+02
     -0.571  0.2981E+02  0.8909E+02
     -0.341  0.1121E+02  0.9151E+02
     -0.112  0.2729E+02  0.9480E+02
      0.118  0.1806E+01  0.9794E+02
      0.347  0.1099E+02  0.1004E+03
      0.576  0.2202E+02  0.1050E+03
      0.806  0.1115E+02  0.1094E+03
      1.035  0.1986E+02  0.1129E+03
      1.264  0.5503E+02  0.1188E+03
      1.494  0.1756E+02  0.1248E+03
      1.723  0.7886E+01  0.1275E+03
      1.952  0.8775E+01  0.1297E+03
      2.182  0.1727E+02  0.1316E+03
      2.411  0.9980E+01  0.1349E+03
      2.641  0.1449E+02  0.1383E+03
      2.870  0.2285E+02  0.1430E+03
      3.099  0.2746E+02  0.1488E+03
      3.329  0.1934E+02  0.1540E+03
      3.558  0.9428E+01  0.1566E+03
      3.787  0.1009E+02  0.1588E+03
      4.017  0.0000E+00  0.1600E+03
      4.246  0.0000E+00  0.1600E+03
      4.476  0.0000E+00  0.1600E+03
      4.705  0.0000E+00  0.1600E+03
      4.934  0.0000E+00  0.1600E+03
      5.164  0.0000E+00  0.1600E+03
      5.393  0.0000E+00  0.1600E+03
      5.622  0.0000E+00  0.1600E+03
      5.852  0.0000E+00  0.1600E+03
      6.081  0.1782E-02  0.1600E+03
      6.310  0.2982E+01  0.1602E+03
      6.540  0.5164E+01  0.1613E+03
      6.769  0.6033E+01  0.1626E+03
      6.999  0.4942E+01  0.1637E+03
      7.228  0.8145E+01  0.1651E+03
      7.457  0.1169E+02  0.1678E+03
      7.687  0.1034E+02  0.1697E+03
      7.916  0.2168E+02  0.1728E+03
      8.145  0.1211E+02  0.1769E+03
      8.375  0.6980E+01  0.1806E+03
      8.604  0.9235E+01  0.1834E+03
      8.833  0.4117E+01  0.1842E+03
      9.063  0.1120E+02  0.1857E+03
      9.292  0.2589E+01  0.1866E+03
      9.522  0.9098E+01  0.1877E+03
      9.751  0.8864E+01  0.1886E+03
      9.980  0.4939E+01  0.1898E+03
     10.210  0.1025E+02  0.1913E+03
     10.439  0.2774E+00  0.1920E+03
     10.668  0.0000E+00  0.1920E+03
     10.898  0.0000E+00  0.1920E+03
     11.127  0.0000E+00  0.1920E+03
     11.357  0.0000E+00  0.1920E+03
     11.586  0.0000E+00  0.1920E+03
     11.815  0.0000E+00  0.1920E+03
     12.045  0.0000E+00  0.1920E+03
     12.274  0.0000E+00  0.1920E+03
     12.503  0.0000E+00  0.1920E+03
     12.733  0.0000E+00  0.1920E+03
     12.962  0.0000E+00  0.1920E+03
     13.191  0.0000E+00  0.1920E+03
     13.421  0.0000E+00  0.1920E+03
     13.650  0.0000E+00  0.1920E+03
