 running on   40 total cores
 distrk:  each k-point on   40 cores,    1 groups
 distr:  one band on   10 cores,    4 groups
 using from now: INCAR     
 vasp.5.4.4.18Apr17-6-g9f103f2a35 (build Oct 23 2017 21:22:35) complex          
  
 POSCAR found :  4 types and      20 ions
 scaLAPACK will be used

 ----------------------------------------------------------------------------- 
|                                                                             |
|  ADVICE TO THIS USER RUNNING 'VASP/VAMP'   (HEAR YOUR MASTER'S VOICE ...):  |
|                                                                             |
|      You have a (more or less) 'large supercell' and for larger cells       |
|      it might be more efficient to use real space projection opertators     |
|      So try LREAL= Auto  in the INCAR   file.                               |
|      Mind:          For very  accurate calculation you might also keep the  |
|      reciprocal projection scheme          (i.e. LREAL=.FALSE.)             |
|                                                                             |
 ----------------------------------------------------------------------------- 

 LDA part: xc-table for Pade appr. of Perdew
 POSCAR, INCAR and KPOINTS ok, starting setup
 FFT: planning ...
 WAVECAR not read
 entering main loop
       N       E                     dE             d eps       ncg     rms          rms(c)
DAV:   1     0.202216793456E+04    0.20222E+04   -0.80736E+04  3648   0.176E+03
DAV:   2     0.169865773122E+03   -0.18523E+04   -0.17526E+04  3896   0.546E+02
DAV:   3    -0.172982349583E+03   -0.34285E+03   -0.33606E+03  4816   0.221E+02
DAV:   4    -0.196910218981E+03   -0.23928E+02   -0.23828E+02  5744   0.616E+01
DAV:   5    -0.198330134010E+03   -0.14199E+01   -0.14186E+01  6280   0.119E+01    0.493E+01
DAV:   6    -0.161039254476E+03    0.37291E+02   -0.22453E+02  5368   0.685E+01    0.303E+01
DAV:   7    -0.161715564430E+03   -0.67631E+00   -0.36157E+01  5232   0.248E+01    0.201E+01
DAV:   8    -0.162207387166E+03   -0.49182E+00   -0.12838E+01  5208   0.161E+01    0.753E+00
DAV:   9    -0.161485044677E+03    0.72234E+00   -0.43145E+00  5232   0.964E+00    0.251E+00
DAV:  10    -0.161424139754E+03    0.60905E-01   -0.41295E-01  5704   0.388E+00    0.133E+00
DAV:  11    -0.161422091751E+03    0.20480E-02   -0.12519E-01  5352   0.161E+00    0.706E-01
DAV:  12    -0.161425758208E+03   -0.36665E-02   -0.21030E-02  5472   0.721E-01    0.270E-01
DAV:  13    -0.161425493090E+03    0.26512E-03   -0.34121E-03  5344   0.331E-01    0.111E-01
DAV:  14    -0.161425535891E+03   -0.42801E-04   -0.11093E-03  5664   0.141E-01    0.444E-02
DAV:  15    -0.161425539809E+03   -0.39174E-05   -0.31879E-04  5208   0.797E-02    0.249E-02
DAV:  16    -0.161425538429E+03    0.13799E-05   -0.31128E-05  3168   0.284E-02
   1 F= -.16142554E+03 E0= -.16142554E+03  d E =-.161426E+03
 curvature:   0.00 expect dE= 0.000E+00 dE for cont linesearch  0.000E+00
 trial: gam= 0.00000 g(F)=  0.358E+00 g(S)=  0.347E+00 ort = 0.000E+00 (trialstep = 0.100E+01)
 search vector abs. value=  0.705E+00
 bond charge predicted
       N       E                     dE             d eps       ncg     rms          rms(c)
DAV:   1    -0.162750203021E+03   -0.13247E+01   -0.12571E+02  4480   0.721E+01    0.122E+01
DAV:   2    -0.162065163732E+03    0.68504E+00   -0.18684E+01  4432   0.210E+01    0.656E+00
DAV:   3    -0.161675786298E+03    0.38938E+00   -0.39200E+00  5192   0.741E+00    0.389E+00
DAV:   4    -0.161553448011E+03    0.12234E+00   -0.17159E+00  5392   0.542E+00    0.229E+00
DAV:   5    -0.161527972388E+03    0.25476E-01   -0.36697E-01  5800   0.264E+00    0.183E+00
DAV:   6    -0.161526570712E+03    0.14017E-02   -0.59698E-02  5632   0.121E+00    0.140E+00
DAV:   7    -0.161534832355E+03   -0.82616E-02   -0.24596E-02  6280   0.622E-01    0.833E-01
DAV:   8    -0.161538223564E+03   -0.33912E-02   -0.14529E-02  5264   0.511E-01    0.179E-01
DAV:   9    -0.161538559239E+03   -0.33568E-03   -0.29610E-03  5904   0.217E-01    0.101E-01
DAV:  10    -0.161538660373E+03   -0.10113E-03   -0.37294E-04  5368   0.793E-02    0.311E-02
DAV:  11    -0.161538668032E+03   -0.76587E-05   -0.67320E-05  4248   0.316E-02
   2 F= -.16153867E+03 E0= -.16153867E+03  d E =-.113130E+00
 trial-energy change:   -0.113130  1 .order   -0.131268   -0.704575    0.442039
 step:   0.5916(harm=  0.6145)  dis= 0.02616  next Energy=  -161.630179 (dE=-0.205E+00)
 bond charge predicted
       N       E                     dE             d eps       ncg     rms          rms(c)
DAV:   1    -0.161870447573E+03   -0.33179E+00   -0.20925E+01  4512   0.304E+01    0.502E+00
DAV:   2    -0.161719218486E+03    0.15123E+00   -0.28556E+00  4376   0.801E+00    0.254E+00
DAV:   3    -0.161640301152E+03    0.78917E-01   -0.52743E-01  5056   0.286E+00    0.110E+00
DAV:   4    -0.161627557484E+03    0.12744E-01   -0.16414E-01  5384   0.192E+00    0.659E-01
DAV:   5    -0.161627613346E+03   -0.55862E-04   -0.39421E-02  5568   0.891E-01    0.476E-01
DAV:   6    -0.161628403076E+03   -0.78973E-03   -0.42887E-03  6160   0.332E-01    0.391E-01
DAV:   7    -0.161629776201E+03   -0.13731E-02   -0.21394E-03  6008   0.214E-01    0.287E-01
DAV:   8    -0.161630853327E+03   -0.10771E-02   -0.24506E-03  5768   0.247E-01    0.382E-02
DAV:   9    -0.161630948593E+03   -0.95266E-04   -0.68117E-04  5872   0.774E-02    0.268E-02
DAV:  10    -0.161630960152E+03   -0.11559E-04   -0.53708E-05  3960   0.283E-02    0.142E-02
DAV:  11    -0.161630960531E+03   -0.37918E-06   -0.39772E-06  2224   0.121E-02
   3 F= -.16163096E+03 E0= -.16163096E+03  d E =-.205422E+00
 curvature:  -0.31 expect dE=-0.146E-01 dE for cont linesearch -0.125E-04
 trial: gam= 0.07533 g(F)=  0.312E-01 g(S)=  0.165E-01 ort =-0.536E-02 (trialstep = 0.918E+00)
 search vector abs. value=  0.509E-01
 bond charge predicted
       N       E                     dE             d eps       ncg     rms          rms(c)
DAV:   1    -0.161620735801E+03    0.10224E-01   -0.63792E+00  4592   0.183E+01    0.171E+00
DAV:   2    -0.161655214593E+03   -0.34479E-01   -0.82998E-01  4000   0.395E+00    0.101E+00
DAV:   3    -0.161650390878E+03    0.48237E-02   -0.79722E-02  5600   0.138E+00    0.445E-01
DAV:   4    -0.161648729997E+03    0.16609E-02   -0.25175E-02  5544   0.912E-01    0.289E-01
DAV:   5    -0.161648322697E+03    0.40730E-03   -0.73655E-03  5880   0.411E-01    0.193E-01
DAV:   6    -0.161648455676E+03   -0.13298E-03   -0.11397E-03  5744   0.147E-01    0.160E-01
DAV:   7    -0.161648697957E+03   -0.24228E-03   -0.37454E-04  6008   0.757E-02    0.960E-02
DAV:   8    -0.161648784417E+03   -0.86460E-04   -0.28850E-04  5232   0.749E-02    0.159E-02
DAV:   9    -0.161648797581E+03   -0.13164E-04   -0.51057E-05  4144   0.241E-02    0.733E-03
DAV:  10    -0.161648798980E+03   -0.13990E-05   -0.50430E-06  2232   0.119E-02
   4 F= -.16164880E+03 E0= -.16164880E+03  d E =-.178384E-01
 trial-energy change:   -0.017838  1 .order   -0.017691   -0.043445    0.008063
 step:   0.7766(harm=  0.7746)  dis= 0.01151  next Energy=  -161.649420 (dE=-0.185E-01)
 bond charge predicted
       N       E                     dE             d eps       ncg     rms          rms(c)
DAV:   1    -0.161648709843E+03    0.87738E-04   -0.15086E-01  4536   0.291E+00    0.259E-01
DAV:   2    -0.161649581299E+03   -0.87146E-03   -0.19978E-02  3976   0.622E-01    0.160E-01
DAV:   3    -0.161649432118E+03    0.14918E-03   -0.18369E-03  5448   0.231E-01    0.679E-02
DAV:   4    -0.161649439043E+03   -0.69251E-05   -0.59321E-04  5392   0.172E-01    0.497E-02
DAV:   5    -0.161649401113E+03    0.37930E-04   -0.18953E-04  4896   0.880E-02    0.302E-02
DAV:   6    -0.161649405202E+03   -0.40885E-05   -0.26827E-05  3144   0.246E-02
   5 F= -.16164941E+03 E0= -.16164941E+03  d E =-.184447E-01
 curvature:  -0.42 expect dE=-0.330E-02 dE for cont linesearch -0.536E-05
 trial: gam= 0.18419 g(F)=  0.758E-02 g(S)=  0.331E-03 ort =-0.810E-03 (trialstep = 0.890E+00)
 search vector abs. value=  0.934E-02
 bond charge predicted
       N       E                     dE             d eps       ncg     rms          rms(c)
DAV:   1    -0.161651671419E+03   -0.22703E-02   -0.16372E+00  3656   0.456E+00    0.297E-01
DAV:   2    -0.161654260118E+03   -0.25887E-02   -0.40624E-02  4336   0.105E+00    0.341E-01
DAV:   3    -0.161653961439E+03    0.29868E-03   -0.49164E-03  5648   0.363E-01    0.197E-01
DAV:   4    -0.161653828986E+03    0.13245E-03   -0.74549E-04  4992   0.156E-01    0.131E-01
DAV:   5    -0.161653762193E+03    0.66793E-04   -0.51835E-04  5128   0.143E-01    0.226E-02
DAV:   6    -0.161653763651E+03   -0.14581E-05   -0.74617E-05  4352   0.450E-02
   6 F= -.16165376E+03 E0= -.16165376E+03  d E =-.435845E-02
 trial-energy change:   -0.004358  1 .order   -0.004509   -0.006909   -0.002109
 step:   1.4552(harm=  1.2811)  dis= 0.00735  next Energy=  -161.654395 (dE=-0.499E-02)
 bond charge predicted
       N       E                     dE             d eps       ncg     rms          rms(c)
DAV:   1    -0.161653205342E+03    0.55685E-03   -0.66078E-01  3656   0.289E+00    0.192E-01
DAV:   2    -0.161654257157E+03   -0.10518E-02   -0.16545E-02  4328   0.677E-01    0.217E-01
DAV:   3    -0.161654143592E+03    0.11357E-03   -0.19983E-03  5592   0.239E-01    0.124E-01
DAV:   4    -0.161654089272E+03    0.54320E-04   -0.29993E-04  4976   0.985E-02    0.828E-02
DAV:   5    -0.161654062348E+03    0.26923E-04   -0.20217E-04  4840   0.888E-02    0.140E-02
DAV:   6    -0.161654062265E+03    0.83674E-07   -0.24519E-05  2912   0.286E-02
   7 F= -.16165406E+03 E0= -.16165406E+03  d E =-.465706E-02
 curvature:  -0.62 expect dE=-0.292E-02 dE for cont linesearch -0.780E-04
 ZBRENT: interpolating
 opt :   1.2777  next Energy=  -161.654159 (dE=-0.475E-02)
 bond charge predicted
       N       E                     dE             d eps       ncg     rms          rms(c)
DAV:   1    -0.161654071601E+03   -0.92526E-05   -0.65064E-02  3696   0.907E-01    0.596E-02
DAV:   2    -0.161654194848E+03   -0.12325E-03   -0.15838E-03  4352   0.200E-01    0.692E-02
DAV:   3    -0.161654175590E+03    0.19259E-04   -0.18968E-04  5360   0.815E-02    0.405E-02
DAV:   4    -0.161654176277E+03   -0.68698E-06   -0.27718E-05  2656   0.321E-02
   8 F= -.16165418E+03 E0= -.16165418E+03  d E =-.477108E-02
 curvature:  -0.76 expect dE=-0.266E-02 dE for cont linesearch -0.105E-05
 trial: gam= 0.44201 g(F)=  0.340E-02 g(S)=  0.773E-04 ort =-0.113E-03 (trialstep = 0.968E+00)
 search vector abs. value=  0.520E-02
 bond charge predicted
       N       E                     dE             d eps       ncg     rms          rms(c)
DAV:   1    -0.161655373721E+03   -0.11981E-02   -0.92006E-01  3656   0.373E+00    0.296E-01
DAV:   2    -0.161656898595E+03   -0.15249E-02   -0.24228E-02  4128   0.666E-01    0.220E-01
DAV:   3    -0.161656788579E+03    0.11002E-03   -0.18794E-03  5648   0.212E-01    0.130E-01
DAV:   4    -0.161656781697E+03    0.68819E-05   -0.80728E-04  5128   0.189E-01    0.937E-02
DAV:   5    -0.161656676347E+03    0.10535E-03   -0.43310E-04  5456   0.144E-01    0.333E-02
DAV:   6    -0.161656680666E+03   -0.43192E-05   -0.47788E-05  4112   0.283E-02
   9 F= -.16165668E+03 E0= -.16165668E+03  d E =-.250439E-02
 trial-energy change:   -0.002504  1 .order   -0.002518   -0.003316   -0.001721
 step:   2.0123(harm=  2.0123)  dis= 0.00776  next Energy=  -161.657624 (dE=-0.345E-02)
 bond charge predicted
       N       E                     dE             d eps       ncg     rms          rms(c)
DAV:   1    -0.161655969743E+03    0.70660E-03   -0.10704E+00  3656   0.403E+00    0.324E-01
DAV:   2    -0.161657735045E+03   -0.17653E-02   -0.28181E-02  4120   0.717E-01    0.238E-01
DAV:   3    -0.161657612524E+03    0.12252E-03   -0.22074E-03  5616   0.228E-01    0.140E-01
DAV:   4    -0.161657608452E+03    0.40721E-05   -0.95350E-04  5168   0.207E-01    0.101E-01
DAV:   5    -0.161657491968E+03    0.11648E-03   -0.50987E-04  5448   0.153E-01    0.371E-02
DAV:   6    -0.161657497026E+03   -0.50583E-05   -0.54720E-05  4384   0.298E-02
  10 F= -.16165750E+03 E0= -.16165750E+03  d E =-.332075E-02
 curvature:  -1.53 expect dE=-0.193E-02 dE for cont linesearch -0.343E-05
 trial: gam= 0.41274 g(F)=  0.753E-03 g(S)=  0.513E-03 ort =-0.108E-03 (trialstep = 0.118E+01)
 search vector abs. value=  0.206E-02
 bond charge predicted
       N       E                     dE             d eps       ncg     rms          rms(c)
DAV:   1    -0.161660239086E+03   -0.27471E-02   -0.45713E-01  3936   0.317E+00    0.532E-01
DAV:   2    -0.161658854179E+03    0.13849E-02   -0.26711E-02  4520   0.796E-01    0.282E-01
DAV:   3    -0.161658280747E+03    0.57343E-03   -0.58930E-03  5304   0.406E-01    0.139E-01
DAV:   4    -0.161658065213E+03    0.21553E-03   -0.26632E-03  5392   0.319E-01    0.813E-02
DAV:   5    -0.161658029810E+03    0.35402E-04   -0.50386E-04  5376   0.128E-01    0.518E-02
DAV:   6    -0.161658040082E+03   -0.10271E-04   -0.70681E-05  4568   0.371E-02    0.427E-02
DAV:   7    -0.161658050349E+03   -0.10267E-04   -0.28066E-05  3344   0.284E-02    0.250E-02
DAV:   8    -0.161658049712E+03    0.63670E-06   -0.25553E-05  3144   0.240E-02
  11 F= -.16165805E+03 E0= -.16165805E+03  d E =-.552686E-03
 trial-energy change:   -0.000553  1 .order   -0.000587   -0.001437    0.000264
 step:   0.9941(harm=  0.9941)  dis= 0.00269  next Energy=  -161.658104 (dE=-0.607E-03)
 bond charge predicted
       N       E                     dE             d eps       ncg     rms          rms(c)
DAV:   1    -0.161658140861E+03   -0.90513E-04   -0.11200E-02  4056   0.494E-01    0.842E-02
DAV:   2    -0.161658102258E+03    0.38603E-04   -0.65146E-04  4568   0.123E-01    0.445E-02
DAV:   3    -0.161658080066E+03    0.22192E-04   -0.14302E-04  4944   0.658E-02    0.218E-02
DAV:   4    -0.161658080516E+03   -0.45005E-06   -0.61658E-05  3792   0.482E-02
  12 F= -.16165808E+03 E0= -.16165808E+03  d E =-.583490E-03
 curvature:  -0.84 expect dE=-0.374E-03 dE for cont linesearch -0.265E-05
 trial: gam= 0.37475 g(F)=  0.323E-03 g(S)=  0.123E-03 ort =-0.807E-04 (trialstep = 0.114E+01)
 search vector abs. value=  0.675E-03
 bond charge predicted
       N       E                     dE             d eps       ncg     rms          rms(c)
DAV:   1    -0.161658003841E+03    0.76226E-04   -0.13743E-01  3960   0.174E+00    0.138E-01
DAV:   2    -0.161658402543E+03   -0.39870E-03   -0.61747E-03  4064   0.338E-01    0.974E-02
DAV:   3    -0.161658400530E+03    0.20137E-05   -0.44058E-04  5592   0.801E-02    0.551E-02
DAV:   4    -0.161658399606E+03    0.92340E-06   -0.86115E-05  4848   0.559E-02
  13 F= -.16165840E+03 E0= -.16165840E+03  d E =-.319090E-03
 trial-energy change:   -0.000319  1 .order   -0.000359   -0.000474   -0.000244
 step:   2.3465(harm=  2.3465)  dis= 0.00386  next Energy=  -161.658568 (dE=-0.488E-03)
 bond charge predicted
       N       E                     dE             d eps       ncg     rms          rms(c)
DAV:   1    -0.161658031385E+03    0.36914E-03   -0.15348E-01  3936   0.183E+00    0.152E-01
DAV:   2    -0.161658478340E+03   -0.44695E-03   -0.69608E-03  4048   0.361E-01    0.109E-01
DAV:   3    -0.161658473482E+03    0.48575E-05   -0.52183E-04  5536   0.942E-02    0.614E-02
DAV:   4    -0.161658471853E+03    0.16297E-05   -0.12438E-04  5088   0.775E-02    0.361E-02
DAV:   5    -0.161658469169E+03    0.26835E-05   -0.54820E-05  3832   0.546E-02
  14 F= -.16165847E+03 E0= -.16165847E+03  d E =-.388653E-03
 curvature:  -1.91 expect dE=-0.351E-03 dE for cont linesearch -0.566E-07
 trial: gam= 0.34436 g(F)=  0.140E-03 g(S)=  0.442E-04 ort = 0.448E-05 (trialstep = 0.138E+01)
 search vector abs. value=  0.268E-03
 bond charge predicted
       N       E                     dE             d eps       ncg     rms          rms(c)
DAV:   1    -0.161658074928E+03    0.39692E-03   -0.10221E-01  4128   0.186E+00    0.131E-01
DAV:   2    -0.161658607318E+03   -0.53239E-03   -0.79119E-03  4464   0.418E-01    0.108E-01
DAV:   3    -0.161658578200E+03    0.29119E-04   -0.57243E-04  5568   0.142E-01    0.630E-02
DAV:   4    -0.161658564474E+03    0.13725E-04   -0.16798E-04  4904   0.932E-02    0.412E-02
DAV:   5    -0.161658543608E+03    0.20866E-04   -0.92026E-05  4424   0.651E-02    0.164E-02
DAV:   6    -0.161658543519E+03    0.89005E-07   -0.13605E-05  2536   0.201E-02
  15 F= -.16165854E+03 E0= -.16165854E+03  d E =-.743501E-04
 trial-energy change:   -0.000074  1 .order   -0.000011   -0.000257    0.000236
 step:   0.9506(harm=  0.7205)  dis= 0.00077  next Energy=  -161.658578 (dE=-0.109E-03)
 bond charge predicted
       N       E                     dE             d eps       ncg     rms          rms(c)
DAV:   1    -0.161658513962E+03    0.29646E-04   -0.10020E-02  4104   0.582E-01    0.425E-02
DAV:   2    -0.161658568864E+03   -0.54902E-04   -0.77364E-04  4552   0.133E-01    0.329E-02
DAV:   3    -0.161658567528E+03    0.13357E-05   -0.52996E-05  4080   0.452E-02
  16 F= -.16165857E+03 E0= -.16165857E+03  d E =-.983587E-04
 curvature:  -0.46 expect dE=-0.449E-04 dE for cont linesearch -0.151E-04
 ZBRENT: interpolating
 opt :   0.6307  next Energy=  -161.658583 (dE=-0.113E-03)
 bond charge predicted
       N       E                     dE             d eps       ncg     rms          rms(c)
DAV:   1    -0.161658539048E+03    0.29816E-04   -0.53375E-03  4096   0.427E-01    0.337E-02
DAV:   2    -0.161658562623E+03   -0.23575E-04   -0.42399E-04  4456   0.909E-02    0.260E-02
DAV:   3    -0.161658558584E+03    0.40392E-05   -0.24602E-05  3296   0.245E-02
  17 F= -.16165856E+03 E0= -.16165856E+03  d E =-.894149E-04
 curvature:  -0.45 expect dE=-0.112E-04 dE for cont linesearch -0.411E-07
 trial: gam= 0.09685 g(F)=  0.124E-04 g(S)=  0.123E-04 ort = 0.492E-05 (trialstep = 0.123E+01)
 search vector abs. value=  0.281E-04
 reached required accuracy - stopping structural energy minimisation
 writing wavefunctions
