  20  20   0   0
  0.1252847E+02  0.6878863E-09  0.6878863E-09  0.6878863E-09  0.5000000E-15
  1.000000000000000E-004
  CAR 
 unknown system                          
     13.80368071    -55.15229805  301      6.48851800      1.00000000
    -55.152  0.0000E+00  0.0000E+00
    -54.922  0.0000E+00  0.0000E+00
    -54.693  0.0000E+00  0.0000E+00
    -54.463  0.0000E+00  0.0000E+00
    -54.233  0.0000E+00  0.0000E+00
    -54.003  0.0000E+00  0.0000E+00
    -53.773  0.0000E+00  0.0000E+00
    -53.543  0.0000E+00  0.0000E+00
    -53.313  0.0000E+00  0.0000E+00
    -53.084  0.0000E+00  0.0000E+00
    -52.854  0.0000E+00  0.0000E+00
    -52.624  0.0000E+00  0.0000E+00
    -52.394  0.0000E+00  0.0000E+00
    -52.164  0.0000E+00  0.0000E+00
    -51.934  0.0000E+00  0.6000E+01
    -51.704  0.0000E+00  0.6000E+01
    -51.475  0.0000E+00  0.6000E+01
    -51.245  0.0000E+00  0.6000E+01
    -51.015  0.0000E+00  0.6000E+01
    -50.785  0.0000E+00  0.6000E+01
    -50.555  0.0000E+00  0.8000E+01
    -50.325  0.0000E+00  0.8000E+01
    -50.096  0.0000E+00  0.8000E+01
    -49.866  0.0000E+00  0.8000E+01
    -49.636  0.0000E+00  0.8000E+01
    -49.406  0.0000E+00  0.8000E+01
    -49.176  0.0000E+00  0.8000E+01
    -48.946  0.0000E+00  0.8000E+01
    -48.716  0.0000E+00  0.8000E+01
    -48.487  0.0000E+00  0.8000E+01
    -48.257  0.0000E+00  0.8000E+01
    -48.027  0.0000E+00  0.8000E+01
    -47.797  0.0000E+00  0.8000E+01
    -47.567  0.0000E+00  0.8000E+01
    -47.337  0.0000E+00  0.8000E+01
    -47.107  0.0000E+00  0.8000E+01
    -46.878  0.0000E+00  0.8000E+01
    -46.648  0.0000E+00  0.8000E+01
    -46.418  0.0000E+00  0.8000E+01
    -46.188  0.0000E+00  0.8000E+01
    -45.958  0.0000E+00  0.8000E+01
    -45.728  0.0000E+00  0.8000E+01
    -45.498  0.0000E+00  0.8000E+01
    -45.269  0.0000E+00  0.8000E+01
    -45.039  0.0000E+00  0.8000E+01
    -44.809  0.0000E+00  0.8000E+01
    -44.579  0.0000E+00  0.8000E+01
    -44.349  0.0000E+00  0.8000E+01
    -44.119  0.0000E+00  0.8000E+01
    -43.889  0.0000E+00  0.8000E+01
    -43.660  0.0000E+00  0.8000E+01
    -43.430  0.0000E+00  0.8000E+01
    -43.200  0.0000E+00  0.8000E+01
    -42.970  0.0000E+00  0.8000E+01
    -42.740  0.0000E+00  0.8000E+01
    -42.510  0.0000E+00  0.8000E+01
    -42.281  0.0000E+00  0.8000E+01
    -42.051  0.0000E+00  0.8000E+01
    -41.821  0.0000E+00  0.8000E+01
    -41.591  0.0000E+00  0.8000E+01
    -41.361  0.0000E+00  0.8000E+01
    -41.131  0.0000E+00  0.8000E+01
    -40.901  0.0000E+00  0.8000E+01
    -40.672  0.0000E+00  0.8000E+01
    -40.442  0.0000E+00  0.8000E+01
    -40.212  0.0000E+00  0.8000E+01
    -39.982  0.0000E+00  0.8000E+01
    -39.752  0.0000E+00  0.8000E+01
    -39.522  0.0000E+00  0.8000E+01
    -39.292  0.0000E+00  0.8000E+01
    -39.063  0.0000E+00  0.8000E+01
    -38.833  0.0000E+00  0.8000E+01
    -38.603  0.0000E+00  0.8000E+01
    -38.373  0.0000E+00  0.8000E+01
    -38.143  0.0000E+00  0.8000E+01
    -37.913  0.0000E+00  0.8000E+01
    -37.683  0.0000E+00  0.8000E+01
    -37.454  0.0000E+00  0.8000E+01
    -37.224  0.0000E+00  0.8000E+01
    -36.994  0.0000E+00  0.8000E+01
    -36.764  0.0000E+00  0.8000E+01
    -36.534  0.0000E+00  0.8000E+01
    -36.304  0.0000E+00  0.8000E+01
    -36.074  0.0000E+00  0.8000E+01
    -35.845  0.0000E+00  0.8000E+01
    -35.615  0.0000E+00  0.8000E+01
    -35.385  0.0000E+00  0.8000E+01
    -35.155  0.0000E+00  0.8000E+01
    -34.925  0.0000E+00  0.8000E+01
    -34.695  0.0000E+00  0.8000E+01
    -34.466  0.0000E+00  0.8000E+01
    -34.236  0.0000E+00  0.8000E+01
    -34.006  0.0000E+00  0.8000E+01
    -33.776  0.0000E+00  0.8000E+01
    -33.546  0.0000E+00  0.8000E+01
    -33.316  0.0000E+00  0.8000E+01
    -33.086  0.0000E+00  0.8000E+01
    -32.857  0.0000E+00  0.8000E+01
    -32.627  0.0000E+00  0.8000E+01
    -32.397  0.0000E+00  0.8000E+01
    -32.167  0.0000E+00  0.8000E+01
    -31.937  0.0000E+00  0.8000E+01
    -31.707  0.0000E+00  0.8000E+01
    -31.477  0.0000E+00  0.8000E+01
    -31.248  0.0000E+00  0.8000E+01
    -31.018  0.0000E+00  0.8000E+01
    -30.788  0.0000E+00  0.8000E+01
    -30.558  0.0000E+00  0.8000E+01
    -30.328  0.0000E+00  0.8000E+01
    -30.098  0.0000E+00  0.8000E+01
    -29.868  0.0000E+00  0.8000E+01
    -29.639  0.0000E+00  0.8000E+01
    -29.409  0.0000E+00  0.8000E+01
    -29.179  0.0000E+00  0.8000E+01
    -28.949  0.0000E+00  0.8000E+01
    -28.719  0.0000E+00  0.1600E+02
    -28.489  0.0000E+00  0.1600E+02
    -28.259  0.1842E+03  0.2936E+02
    -28.030  0.0000E+00  0.3400E+02
    -27.800  0.0000E+00  0.3400E+02
    -27.570  0.0000E+00  0.3400E+02
    -27.340  0.0000E+00  0.3400E+02
    -27.110  0.0000E+00  0.3400E+02
    -26.880  0.0000E+00  0.3400E+02
    -26.650  0.0000E+00  0.4000E+02
    -26.421  0.0000E+00  0.4000E+02
    -26.191  0.0000E+00  0.4000E+02
    -25.961  0.0000E+00  0.4000E+02
    -25.731  0.0000E+00  0.4000E+02
    -25.501  0.0000E+00  0.4000E+02
    -25.271  0.0000E+00  0.4000E+02
    -25.042  0.0000E+00  0.4000E+02
    -24.812  0.0000E+00  0.4000E+02
    -24.582  0.0000E+00  0.4000E+02
    -24.352  0.0000E+00  0.4000E+02
    -24.122  0.0000E+00  0.4000E+02
    -23.892  0.0000E+00  0.4000E+02
    -23.662  0.0000E+00  0.4000E+02
    -23.433  0.0000E+00  0.4000E+02
    -23.203  0.0000E+00  0.4000E+02
    -22.973  0.0000E+00  0.4000E+02
    -22.743  0.0000E+00  0.4000E+02
    -22.513  0.0000E+00  0.4000E+02
    -22.283  0.0000E+00  0.4000E+02
    -22.053  0.0000E+00  0.4000E+02
    -21.824  0.0000E+00  0.4000E+02
    -21.594  0.0000E+00  0.4000E+02
    -21.364  0.0000E+00  0.4000E+02
    -21.134  0.0000E+00  0.4000E+02
    -20.904  0.0000E+00  0.4000E+02
    -20.674  0.0000E+00  0.4000E+02
    -20.444  0.0000E+00  0.4000E+02
    -20.215  0.0000E+00  0.4000E+02
    -19.985  0.0000E+00  0.4000E+02
    -19.755  0.0000E+00  0.4000E+02
    -19.525  0.0000E+00  0.4000E+02
    -19.295  0.0000E+00  0.4000E+02
    -19.065  0.0000E+00  0.4000E+02
    -18.835  0.0000E+00  0.4000E+02
    -18.606  0.0000E+00  0.4000E+02
    -18.376  0.0000E+00  0.4000E+02
    -18.146  0.0000E+00  0.4000E+02
    -17.916  0.0000E+00  0.4000E+02
    -17.686  0.0000E+00  0.4000E+02
    -17.456  0.0000E+00  0.4000E+02
    -17.227  0.0000E+00  0.4000E+02
    -16.997  0.0000E+00  0.4000E+02
    -16.767  0.0000E+00  0.4000E+02
    -16.537  0.0000E+00  0.4000E+02
    -16.307  0.0000E+00  0.4000E+02
    -16.077  0.0000E+00  0.4000E+02
    -15.847  0.0000E+00  0.4000E+02
    -15.618  0.0000E+00  0.4000E+02
    -15.388  0.0000E+00  0.4000E+02
    -15.158  0.0000E+00  0.4000E+02
    -14.928  0.0000E+00  0.4000E+02
    -14.698  0.0000E+00  0.4000E+02
    -14.468  0.0000E+00  0.4000E+02
    -14.238  0.0000E+00  0.4000E+02
    -14.009  0.0000E+00  0.4000E+02
    -13.779  0.0000E+00  0.4000E+02
    -13.549  0.2754E+01  0.4017E+02
    -13.319  0.5391E+01  0.4218E+02
    -13.089  0.1928E+02  0.4400E+02
    -12.859  0.7059E+01  0.4613E+02
    -12.629  0.1245E+02  0.4846E+02
    -12.400  0.1021E+02  0.5175E+02
    -12.170  0.1392E+02  0.5739E+02
    -11.940  0.2774E+02  0.6283E+02
    -11.710  0.0000E+00  0.6400E+02
    -11.480  0.0000E+00  0.6400E+02
    -11.250  0.0000E+00  0.6400E+02
    -11.020  0.2278E+02  0.6524E+02
    -10.791  0.4356E+02  0.7542E+02
    -10.561  0.2312E+02  0.8363E+02
    -10.331  0.0000E+00  0.8800E+02
    -10.101  0.0000E+00  0.8800E+02
     -9.871  0.0000E+00  0.8800E+02
     -9.641  0.0000E+00  0.8800E+02
     -9.411  0.0000E+00  0.8800E+02
     -9.182  0.0000E+00  0.8800E+02
     -8.952  0.0000E+00  0.8800E+02
     -8.722  0.0000E+00  0.8800E+02
     -8.492  0.0000E+00  0.8800E+02
     -8.262  0.0000E+00  0.8800E+02
     -8.032  0.0000E+00  0.8800E+02
     -7.803  0.0000E+00  0.8800E+02
     -7.573  0.0000E+00  0.8800E+02
     -7.343  0.0000E+00  0.8800E+02
     -7.113  0.0000E+00  0.8800E+02
     -6.883  0.0000E+00  0.8800E+02
     -6.653  0.0000E+00  0.8800E+02
     -6.423  0.0000E+00  0.8800E+02
     -6.194  0.0000E+00  0.8800E+02
     -5.964  0.0000E+00  0.8800E+02
     -5.734  0.0000E+00  0.8800E+02
     -5.504  0.0000E+00  0.8800E+02
     -5.274  0.0000E+00  0.8800E+02
     -5.044  0.0000E+00  0.8800E+02
     -4.814  0.0000E+00  0.8800E+02
     -4.585  0.0000E+00  0.8800E+02
     -4.355  0.0000E+00  0.8800E+02
     -4.125  0.0000E+00  0.8800E+02
     -3.895  0.0000E+00  0.8800E+02
     -3.665  0.0000E+00  0.8800E+02
     -3.435  0.0000E+00  0.8800E+02
     -3.205  0.0000E+00  0.8800E+02
     -2.976  0.0000E+00  0.8800E+02
     -2.746  0.0000E+00  0.8800E+02
     -2.516  0.0000E+00  0.8800E+02
     -2.286  0.0000E+00  0.8800E+02
     -2.056  0.0000E+00  0.8800E+02
     -1.826  0.0000E+00  0.8800E+02
     -1.596  0.0000E+00  0.8800E+02
     -1.367  0.0000E+00  0.8800E+02
     -1.137  0.0000E+00  0.8800E+02
     -0.907  0.2896E+00  0.8800E+02
     -0.677  0.8311E+01  0.8963E+02
     -0.447  0.6647E+01  0.9118E+02
     -0.217  0.1774E+02  0.9358E+02
      0.012  0.1764E+02  0.9668E+02
      0.242  0.1098E+02  0.1011E+03
      0.472  0.1115E+02  0.1032E+03
      0.702  0.8430E+01  0.1060E+03
      0.932  0.2116E+02  0.1108E+03
      1.162  0.2812E+02  0.1155E+03
      1.392  0.2380E+02  0.1235E+03
      1.621  0.1283E+02  0.1262E+03
      1.851  0.9268E+01  0.1286E+03
      2.081  0.1350E+02  0.1312E+03
      2.311  0.6842E+01  0.1343E+03
      2.541  0.9068E+01  0.1369E+03
      2.771  0.1488E+02  0.1405E+03
      3.001  0.2033E+02  0.1452E+03
      3.230  0.2703E+02  0.1508E+03
      3.460  0.1352E+02  0.1541E+03
      3.690  0.1291E+02  0.1574E+03
      3.920  0.3301E+01  0.1599E+03
      4.150  0.0000E+00  0.1600E+03
      4.380  0.0000E+00  0.1600E+03
      4.610  0.0000E+00  0.1600E+03
      4.839  0.0000E+00  0.1600E+03
      5.069  0.0000E+00  0.1600E+03
      5.299  0.0000E+00  0.1600E+03
      5.529  0.0000E+00  0.1600E+03
      5.759  0.0000E+00  0.1600E+03
      5.989  0.0000E+00  0.1600E+03
      6.219  0.1173E+01  0.1601E+03
      6.448  0.4130E+01  0.1608E+03
      6.678  0.5190E+01  0.1619E+03
      6.908  0.9547E+01  0.1634E+03
      7.138  0.4691E+01  0.1653E+03
      7.368  0.0000E+00  0.1660E+03
      7.598  0.1194E+02  0.1688E+03
      7.827  0.1418E+02  0.1715E+03
      8.057  0.2714E+02  0.1759E+03
      8.287  0.1112E+02  0.1797E+03
      8.517  0.1107E+02  0.1825E+03
      8.747  0.7800E+00  0.1840E+03
      8.977  0.4467E+01  0.1849E+03
      9.207  0.4285E+01  0.1859E+03
      9.436  0.4923E+01  0.1870E+03
      9.666  0.5676E+01  0.1883E+03
      9.896  0.4110E+01  0.1893E+03
     10.126  0.3625E+01  0.1903E+03
     10.356  0.3949E+01  0.1910E+03
     10.586  0.1909E+01  0.1919E+03
     10.816  0.0000E+00  0.1920E+03
     11.045  0.0000E+00  0.1920E+03
     11.275  0.0000E+00  0.1920E+03
     11.505  0.0000E+00  0.1920E+03
     11.735  0.0000E+00  0.1920E+03
     11.965  0.0000E+00  0.1920E+03
     12.195  0.0000E+00  0.1920E+03
     12.425  0.0000E+00  0.1920E+03
     12.654  0.0000E+00  0.1920E+03
     12.884  0.0000E+00  0.1920E+03
     13.114  0.0000E+00  0.1920E+03
     13.344  0.0000E+00  0.1920E+03
     13.574  0.0000E+00  0.1920E+03
     13.804  0.0000E+00  0.1920E+03
