  15  15   0   0
  0.1301814E+02  0.8992399E-09  0.8992399E-09  0.4026826E-09  0.5000000E-15
  1.000000000000000E-004
  CAR 
 unknown system                          
     15.09159545    -54.50937904  301      7.16795660      1.00000000
    -54.509  0.0000E+00  0.0000E+00
    -54.277  0.0000E+00  0.0000E+00
    -54.045  0.0000E+00  0.0000E+00
    -53.813  0.0000E+00  0.0000E+00
    -53.581  0.0000E+00  0.0000E+00
    -53.349  0.0000E+00  0.0000E+00
    -53.117  0.0000E+00  0.0000E+00
    -52.885  0.0000E+00  0.0000E+00
    -52.653  0.0000E+00  0.0000E+00
    -52.421  0.0000E+00  0.0000E+00
    -52.189  0.0000E+00  0.0000E+00
    -51.957  0.0000E+00  0.0000E+00
    -51.725  0.0000E+00  0.0000E+00
    -51.493  0.0000E+00  0.0000E+00
    -51.261  0.0000E+00  0.2000E+01
    -51.029  0.0000E+00  0.2000E+01
    -50.797  0.0000E+00  0.2000E+01
    -50.565  0.0000E+00  0.2000E+01
    -50.333  0.0000E+00  0.2000E+01
    -50.101  0.0000E+00  0.2000E+01
    -49.869  0.0000E+00  0.2000E+01
    -49.637  0.0000E+00  0.6000E+01
    -49.405  0.0000E+00  0.6000E+01
    -49.173  0.0000E+00  0.6000E+01
    -48.941  0.0000E+00  0.6000E+01
    -48.709  0.0000E+00  0.6000E+01
    -48.477  0.0000E+00  0.6000E+01
    -48.245  0.0000E+00  0.6000E+01
    -48.013  0.0000E+00  0.6000E+01
    -47.781  0.0000E+00  0.6000E+01
    -47.549  0.0000E+00  0.6000E+01
    -47.317  0.0000E+00  0.6000E+01
    -47.085  0.0000E+00  0.6000E+01
    -46.853  0.0000E+00  0.6000E+01
    -46.621  0.0000E+00  0.6000E+01
    -46.389  0.0000E+00  0.6000E+01
    -46.157  0.0000E+00  0.6000E+01
    -45.925  0.0000E+00  0.6000E+01
    -45.693  0.0000E+00  0.6000E+01
    -45.461  0.0000E+00  0.6000E+01
    -45.229  0.0000E+00  0.6000E+01
    -44.997  0.0000E+00  0.6000E+01
    -44.765  0.0000E+00  0.6000E+01
    -44.533  0.0000E+00  0.6000E+01
    -44.301  0.0000E+00  0.6000E+01
    -44.069  0.0000E+00  0.6000E+01
    -43.837  0.0000E+00  0.6000E+01
    -43.605  0.0000E+00  0.6000E+01
    -43.373  0.0000E+00  0.6000E+01
    -43.141  0.0000E+00  0.6000E+01
    -42.909  0.0000E+00  0.6000E+01
    -42.677  0.0000E+00  0.6000E+01
    -42.445  0.0000E+00  0.6000E+01
    -42.213  0.0000E+00  0.6000E+01
    -41.981  0.0000E+00  0.6000E+01
    -41.749  0.0000E+00  0.6000E+01
    -41.517  0.0000E+00  0.6000E+01
    -41.285  0.0000E+00  0.6000E+01
    -41.053  0.0000E+00  0.6000E+01
    -40.821  0.0000E+00  0.6000E+01
    -40.589  0.0000E+00  0.6000E+01
    -40.357  0.0000E+00  0.6000E+01
    -40.125  0.0000E+00  0.6000E+01
    -39.893  0.0000E+00  0.6000E+01
    -39.661  0.0000E+00  0.6000E+01
    -39.429  0.0000E+00  0.6000E+01
    -39.197  0.0000E+00  0.6000E+01
    -38.965  0.0000E+00  0.6000E+01
    -38.733  0.0000E+00  0.6000E+01
    -38.501  0.0000E+00  0.6000E+01
    -38.269  0.0000E+00  0.6000E+01
    -38.037  0.0000E+00  0.6000E+01
    -37.805  0.0000E+00  0.6000E+01
    -37.573  0.0000E+00  0.6000E+01
    -37.341  0.0000E+00  0.6000E+01
    -37.109  0.0000E+00  0.6000E+01
    -36.877  0.0000E+00  0.6000E+01
    -36.645  0.0000E+00  0.6000E+01
    -36.413  0.0000E+00  0.6000E+01
    -36.181  0.0000E+00  0.6000E+01
    -35.949  0.0000E+00  0.6000E+01
    -35.717  0.0000E+00  0.6000E+01
    -35.485  0.0000E+00  0.6000E+01
    -35.253  0.0000E+00  0.6000E+01
    -35.021  0.0000E+00  0.6000E+01
    -34.789  0.0000E+00  0.6000E+01
    -34.557  0.0000E+00  0.6000E+01
    -34.325  0.0000E+00  0.6000E+01
    -34.093  0.0000E+00  0.6000E+01
    -33.861  0.0000E+00  0.6000E+01
    -33.629  0.0000E+00  0.6000E+01
    -33.397  0.0000E+00  0.6000E+01
    -33.165  0.0000E+00  0.6000E+01
    -32.933  0.0000E+00  0.6000E+01
    -32.701  0.0000E+00  0.6000E+01
    -32.469  0.0000E+00  0.6000E+01
    -32.237  0.0000E+00  0.6000E+01
    -32.005  0.0000E+00  0.6000E+01
    -31.773  0.0000E+00  0.6000E+01
    -31.541  0.0000E+00  0.6000E+01
    -31.309  0.0000E+00  0.6000E+01
    -31.077  0.0000E+00  0.6000E+01
    -30.845  0.0000E+00  0.6000E+01
    -30.613  0.0000E+00  0.6000E+01
    -30.381  0.0000E+00  0.6000E+01
    -30.149  0.0000E+00  0.6000E+01
    -29.917  0.0000E+00  0.6000E+01
    -29.685  0.0000E+00  0.6000E+01
    -29.453  0.0000E+00  0.6000E+01
    -29.221  0.0000E+00  0.6000E+01
    -28.989  0.0000E+00  0.6000E+01
    -28.757  0.0000E+00  0.1200E+02
    -28.525  0.0000E+00  0.1200E+02
    -28.293  0.0000E+00  0.1200E+02
    -28.061  0.0000E+00  0.1200E+02
    -27.829  0.0000E+00  0.1200E+02
    -27.597  0.0000E+00  0.1800E+02
    -27.365  0.0000E+00  0.1800E+02
    -27.133  0.0000E+00  0.1800E+02
    -26.901  0.0000E+00  0.1800E+02
    -26.669  0.0000E+00  0.1800E+02
    -26.437  0.0000E+00  0.1800E+02
    -26.205  0.0000E+00  0.1800E+02
    -25.973  0.8564E+02  0.1837E+02
    -25.741  0.0000E+00  0.3000E+02
    -25.509  0.0000E+00  0.3000E+02
    -25.277  0.0000E+00  0.3000E+02
    -25.045  0.0000E+00  0.3000E+02
    -24.813  0.0000E+00  0.3000E+02
    -24.581  0.0000E+00  0.3000E+02
    -24.349  0.0000E+00  0.3000E+02
    -24.117  0.0000E+00  0.3000E+02
    -23.885  0.0000E+00  0.3000E+02
    -23.653  0.0000E+00  0.3000E+02
    -23.421  0.0000E+00  0.3000E+02
    -23.189  0.0000E+00  0.3000E+02
    -22.957  0.0000E+00  0.3000E+02
    -22.725  0.0000E+00  0.3000E+02
    -22.493  0.0000E+00  0.3000E+02
    -22.261  0.0000E+00  0.3000E+02
    -22.029  0.0000E+00  0.3000E+02
    -21.797  0.0000E+00  0.3000E+02
    -21.565  0.0000E+00  0.3000E+02
    -21.333  0.0000E+00  0.3000E+02
    -21.101  0.0000E+00  0.3000E+02
    -20.869  0.0000E+00  0.3000E+02
    -20.637  0.0000E+00  0.3000E+02
    -20.405  0.0000E+00  0.3000E+02
    -20.173  0.0000E+00  0.3000E+02
    -19.941  0.0000E+00  0.3000E+02
    -19.709  0.0000E+00  0.3000E+02
    -19.477  0.0000E+00  0.3000E+02
    -19.245  0.0000E+00  0.3000E+02
    -19.013  0.0000E+00  0.3000E+02
    -18.781  0.0000E+00  0.3000E+02
    -18.549  0.0000E+00  0.3000E+02
    -18.317  0.0000E+00  0.3000E+02
    -18.085  0.0000E+00  0.3000E+02
    -17.853  0.0000E+00  0.3000E+02
    -17.621  0.0000E+00  0.3000E+02
    -17.389  0.0000E+00  0.3000E+02
    -17.157  0.0000E+00  0.3000E+02
    -16.925  0.0000E+00  0.3000E+02
    -16.693  0.0000E+00  0.3000E+02
    -16.461  0.0000E+00  0.3000E+02
    -16.229  0.0000E+00  0.3000E+02
    -15.997  0.0000E+00  0.3000E+02
    -15.765  0.0000E+00  0.3000E+02
    -15.533  0.0000E+00  0.3000E+02
    -15.301  0.0000E+00  0.3000E+02
    -15.069  0.0000E+00  0.3000E+02
    -14.837  0.0000E+00  0.3000E+02
    -14.605  0.0000E+00  0.3000E+02
    -14.373  0.0000E+00  0.3000E+02
    -14.141  0.0000E+00  0.3000E+02
    -13.909  0.0000E+00  0.3000E+02
    -13.677  0.0000E+00  0.3000E+02
    -13.445  0.0000E+00  0.3000E+02
    -13.213  0.5832E+01  0.3038E+02
    -12.981  0.5206E+01  0.3236E+02
    -12.749  0.7851E+01  0.3407E+02
    -12.517  0.1019E+02  0.3594E+02
    -12.285  0.6976E+01  0.3872E+02
    -12.053  0.1948E+02  0.4289E+02
    -11.821  0.1840E+02  0.4667E+02
    -11.589  0.0000E+00  0.4800E+02
    -11.357  0.0000E+00  0.4800E+02
    -11.125  0.0000E+00  0.4800E+02
    -10.893  0.5003E+02  0.5318E+02
    -10.661  0.1690E+02  0.6006E+02
    -10.429  0.1203E+02  0.6535E+02
    -10.197  0.0000E+00  0.6600E+02
     -9.965  0.0000E+00  0.6600E+02
     -9.733  0.0000E+00  0.6600E+02
     -9.501  0.0000E+00  0.6600E+02
     -9.269  0.0000E+00  0.6600E+02
     -9.037  0.0000E+00  0.6600E+02
     -8.805  0.0000E+00  0.6600E+02
     -8.573  0.0000E+00  0.6600E+02
     -8.341  0.0000E+00  0.6600E+02
     -8.109  0.0000E+00  0.6600E+02
     -7.877  0.0000E+00  0.6600E+02
     -7.645  0.0000E+00  0.6600E+02
     -7.413  0.0000E+00  0.6600E+02
     -7.181  0.0000E+00  0.6600E+02
     -6.949  0.0000E+00  0.6600E+02
     -6.717  0.0000E+00  0.6600E+02
     -6.485  0.0000E+00  0.6600E+02
     -6.253  0.0000E+00  0.6600E+02
     -6.021  0.0000E+00  0.6600E+02
     -5.789  0.0000E+00  0.6600E+02
     -5.557  0.0000E+00  0.6600E+02
     -5.325  0.0000E+00  0.6600E+02
     -5.093  0.0000E+00  0.6600E+02
     -4.861  0.0000E+00  0.6600E+02
     -4.629  0.0000E+00  0.6600E+02
     -4.397  0.0000E+00  0.6600E+02
     -4.165  0.0000E+00  0.6600E+02
     -3.933  0.0000E+00  0.6600E+02
     -3.701  0.0000E+00  0.6600E+02
     -3.469  0.0000E+00  0.6600E+02
     -3.237  0.0000E+00  0.6600E+02
     -3.005  0.0000E+00  0.6600E+02
     -2.773  0.0000E+00  0.6600E+02
     -2.541  0.0000E+00  0.6600E+02
     -2.309  0.0000E+00  0.6600E+02
     -2.077  0.0000E+00  0.6600E+02
     -1.845  0.0000E+00  0.6600E+02
     -1.613  0.0000E+00  0.6600E+02
     -1.381  0.0000E+00  0.6600E+02
     -1.149  0.0000E+00  0.6600E+02
     -0.917  0.0000E+00  0.6600E+02
     -0.685  0.2143E+01  0.6656E+02
     -0.453  0.3588E+01  0.6707E+02
     -0.221  0.1108E+02  0.6963E+02
      0.011  0.9697E+01  0.7268E+02
      0.243  0.6353E+01  0.7446E+02
      0.475  0.1052E+02  0.7637E+02
      0.707  0.1259E+02  0.7892E+02
      0.939  0.1528E+02  0.8200E+02
      1.171  0.1379E+02  0.8548E+02
      1.403  0.1484E+02  0.8887E+02
      1.635  0.2169E+02  0.9313E+02
      1.867  0.7483E+01  0.9565E+02
      2.099  0.8380E+01  0.9745E+02
      2.331  0.9893E+01  0.9952E+02
      2.563  0.1091E+02  0.1022E+03
      2.795  0.1230E+02  0.1053E+03
      3.027  0.1395E+02  0.1092E+03
      3.259  0.1313E+02  0.1128E+03
      3.491  0.1358E+02  0.1162E+03
      3.723  0.5969E+01  0.1180E+03
      3.955  0.5824E+01  0.1197E+03
      4.187  0.0000E+00  0.1200E+03
      4.419  0.0000E+00  0.1200E+03
      4.651  0.0000E+00  0.1200E+03
      4.883  0.0000E+00  0.1200E+03
      5.115  0.0000E+00  0.1200E+03
      5.347  0.0000E+00  0.1200E+03
      5.579  0.0000E+00  0.1200E+03
      5.811  0.0000E+00  0.1200E+03
      6.043  0.0000E+00  0.1200E+03
      6.275  0.0000E+00  0.1200E+03
      6.507  0.1280E+01  0.1201E+03
      6.739  0.3158E+01  0.1206E+03
      6.971  0.3279E+01  0.1214E+03
      7.203  0.3270E+01  0.1221E+03
      7.435  0.4660E+01  0.1230E+03
      7.667  0.4637E+01  0.1242E+03
      7.899  0.5774E+01  0.1254E+03
      8.131  0.8017E+01  0.1270E+03
      8.364  0.1011E+02  0.1291E+03
      8.596  0.1271E+02  0.1321E+03
      8.828  0.8359E+01  0.1342E+03
      9.060  0.5755E+01  0.1360E+03
      9.292  0.4702E+01  0.1371E+03
      9.524  0.3134E+01  0.1382E+03
      9.756  0.2676E+01  0.1388E+03
      9.988  0.5563E+01  0.1397E+03
     10.220  0.7985E+01  0.1412E+03
     10.452  0.3955E+01  0.1424E+03
     10.684  0.6363E+01  0.1435E+03
     10.916  0.1154E+02  0.1455E+03
     11.148  0.9145E+01  0.1476E+03
     11.380  0.8330E+01  0.1498E+03
     11.612  0.4452E+01  0.1514E+03
     11.844  0.9207E+00  0.1519E+03
     12.076  0.0000E+00  0.1520E+03
     12.308  0.0000E+00  0.1520E+03
     12.540  0.0000E+00  0.1520E+03
     12.772  0.0000E+00  0.1520E+03
     13.004  0.0000E+00  0.1520E+03
     13.236  0.0000E+00  0.1520E+03
     13.468  0.0000E+00  0.1520E+03
     13.700  0.0000E+00  0.1520E+03
     13.932  0.0000E+00  0.1520E+03
     14.164  0.0000E+00  0.1520E+03
     14.396  0.0000E+00  0.1520E+03
     14.628  0.0000E+00  0.1520E+03
     14.860  0.0000E+00  0.1520E+03
     15.092  0.0000E+00  0.1520E+03
