<?xml version="1.0" encoding="ISO-8859-1"?>
<modeling>
 <generator>
  <i name="program" type="string">vasp </i>
  <i name="version" type="string">5.4.4.18Apr17-6-g9f103f2a35  </i>
  <i name="subversion" type="string">(build Oct 23 2017 21:22:35) complex            parallel </i>
  <i name="platform" type="string">LinuxIFC </i>
  <i name="date" type="string">2017 12 27 </i>
  <i name="time" type="string">08:38:13 </i>
 </generator>
 <incar>
  <i type="string" name="PREC">accurate</i>
  <i type="int" name="IBRION">    -1</i>
  <i name="EDIFF">      0.00001000</i>
  <i name="EDIFFG">     -0.01000000</i>
  <i type="int" name="ISIF">     2</i>
  <i name="ENCUT">    500.00000000</i>
  <i type="int" name="ISMEAR">    -5</i>
  <v type="int" name="KPOINT_BSE">    -1     0     0     0</v>
 </incar>
 <structure name="primitive_cell" >
  <crystal>
   <varray name="basis" >
    <v>       3.97524207      -7.94597422       3.97524207 </v>
    <v>       7.94597422      -3.97524207       3.97524207 </v>
    <v>       3.97524207      -3.97524207       7.94597422 </v>
   </varray>
   <i name="volume">    250.63490914 </i>
   <varray name="rec_basis" >
    <v>      -0.06297854      -0.18886418      -0.06297854 </v>
    <v>       0.18886418       0.06297854      -0.06297854 </v>
    <v>      -0.06297854       0.06297854       0.18886418 </v>
   </varray>
  </crystal>
  <varray name="positions" >
   <v>       0.37500000       0.37500000       0.37500000 </v>
   <v>       0.24948453      -0.24813450       0.24948453 </v>
   <v>      -0.00186550      -0.49948453      -0.49948453 </v>
   <v>      -0.49948453      -0.00186550      -0.49948453 </v>
   <v>      -0.24813450       0.24948453       0.24948453 </v>
   <v>       0.24948453       0.24948453      -0.24813450 </v>
   <v>      -0.49948453      -0.49948453      -0.00186550 </v>
   <v>      -0.24784112      -0.24784112      -0.24784112 </v>
   <v>      -0.00215888      -0.00215888      -0.00215888 </v>
   <v>       0.24830383       0.24830383       0.24830383 </v>
   <v>      -0.49830383      -0.49830383      -0.49830383 </v>
   <v>      -0.37713006      -0.37713006      -0.37713006 </v>
   <v>       0.12713006       0.12713006       0.12713006 </v>
   <v>       0.24992588      -0.25004714      -0.25004714 </v>
   <v>      -0.25004714       0.24992588      -0.25004714 </v>
   <v>      -0.49992588       0.00004714       0.00004714 </v>
   <v>      -0.25004714      -0.25004714       0.24992588 </v>
   <v>       0.00004714      -0.49992588       0.00004714 </v>
   <v>       0.00004714       0.00004714      -0.49992588 </v>
   <v>      -0.12500000      -0.12500000      -0.12500000 </v>
  </varray>
 </structure>
 <varray name="primitive_index" >
  <v type="int" >        1 </v>
  <v type="int" >        2 </v>
  <v type="int" >        3 </v>
  <v type="int" >        5 </v>
  <v type="int" >       12 </v>
  <v type="int" >        4 </v>
  <v type="int" >        7 </v>
  <v type="int" >       14 </v>
  <v type="int" >       15 </v>
  <v type="int" >       16 </v>
  <v type="int" >       17 </v>
  <v type="int" >       18 </v>
  <v type="int" >       20 </v>
  <v type="int" >        6 </v>
  <v type="int" >        8 </v>
  <v type="int" >        9 </v>
  <v type="int" >       10 </v>
  <v type="int" >       11 </v>
  <v type="int" >       13 </v>
  <v type="int" >       19 </v>
 </varray>
 <kpoints>
  <generation param="Gamma">
   <v type="int" name="divisions">       5        5        5 </v>
   <v name="usershift">      0.00000000       0.00000000       0.00000000 </v>
   <v name="genvec1">      0.20000000       0.00000000      -0.00000000 </v>
   <v name="genvec2">      0.00000000       0.20000000      -0.00000000 </v>
   <v name="genvec3">     -0.00000000      -0.00000000       0.20000000 </v>
   <v name="shift">      0.00000000       0.00000000       0.00000000 </v>
  </generation>
  <varray name="kpointlist" >
   <v>       0.00000000       0.00000000       0.00000000 </v>
   <v>       0.20000000      -0.00000000       0.00000000 </v>
   <v>       0.40000000      -0.00000000       0.00000000 </v>
   <v>       0.20000000       0.20000000       0.00000000 </v>
   <v>       0.40000000       0.20000000      -0.00000000 </v>
   <v>      -0.40000000       0.20000000       0.00000000 </v>
   <v>      -0.20000000       0.20000000       0.00000000 </v>
   <v>       0.40000000       0.40000000       0.00000000 </v>
   <v>      -0.40000000       0.40000000       0.00000000 </v>
   <v>       0.20000000       0.20000000       0.20000000 </v>
   <v>       0.40000000       0.20000000       0.20000000 </v>
   <v>      -0.40000000       0.20000000       0.20000000 </v>
   <v>      -0.20000000       0.20000000       0.20000000 </v>
   <v>       0.40000000       0.40000000       0.20000000 </v>
   <v>      -0.40000000       0.40000000       0.20000000 </v>
   <v>      -0.20000000       0.40000000       0.20000000 </v>
   <v>      -0.40000000      -0.40000000       0.20000000 </v>
   <v>       0.40000000       0.40000000       0.40000000 </v>
   <v>      -0.40000000       0.40000000       0.40000000 </v>
  </varray>
  <varray name="weights" >
   <v>       0.00800000 </v>
   <v>       0.04800000 </v>
   <v>       0.04800000 </v>
   <v>       0.04800000 </v>
   <v>       0.09600000 </v>
   <v>       0.09600000 </v>
   <v>       0.04800000 </v>
   <v>       0.04800000 </v>
   <v>       0.04800000 </v>
   <v>       0.01600000 </v>
   <v>       0.04800000 </v>
   <v>       0.04800000 </v>
   <v>       0.04800000 </v>
   <v>       0.04800000 </v>
   <v>       0.09600000 </v>
   <v>       0.09600000 </v>
   <v>       0.04800000 </v>
   <v>       0.01600000 </v>
   <v>       0.04800000 </v>
  </varray>
  <varray name="tetrahedronlist"  type="int" >
   <v type="int" >       12        1        2        4       10 </v>
   <v type="int" >       12        2        4        5       11 </v>
   <v type="int" >       12        2        3        5       11 </v>
   <v type="int" >       12        2        4       10       11 </v>
   <v type="int" >       12        3        5        6       12 </v>
   <v type="int" >       12        3        3        6       12 </v>
   <v type="int" >       12        3        5       11       12 </v>
   <v type="int" >       12        3        6        7       13 </v>
   <v type="int" >       12        2        3        7       13 </v>
   <v type="int" >       12        3        6       12       13 </v>
   <v type="int" >       12        2        2        4        7 </v>
   <v type="int" >       12        1        2        2        4 </v>
   <v type="int" >       12        2        4        7       13 </v>
   <v type="int" >       12        4        5        8       14 </v>
   <v type="int" >       12        4        5       11       14 </v>
   <v type="int" >       12        4       10       11       14 </v>
   <v type="int" >       12        5        8        9       15 </v>
   <v type="int" >       12        5        6        9       15 </v>
   <v type="int" >       12        5        6       12       15 </v>
   <v type="int" >       12        5        8       14       15 </v>
   <v type="int" >       12        5       11       14       15 </v>
   <v type="int" >       12        5       11       12       15 </v>
   <v type="int" >       12        6        6        9       16 </v>
   <v type="int" >       12        6        6        7       16 </v>
   <v type="int" >       12        6        7       13       16 </v>
   <v type="int" >       12        6        9       15       16 </v>
   <v type="int" >       12        6       12       15       16 </v>
   <v type="int" >       12        6       12       13       16 </v>
   <v type="int" >       12        3        5        6        7 </v>
   <v type="int" >       12        2        3        5        7 </v>
   <v type="int" >       12        2        4        5        7 </v>
   <v type="int" >       12        5        6        7       16 </v>
   <v type="int" >       12        5        7       13       16 </v>
   <v type="int" >       12        4        5        7       13 </v>
   <v type="int" >       12        8        8        9       17 </v>
   <v type="int" >       12        8        9       15       17 </v>
   <v type="int" >       12        8       14       15       17 </v>
   <v type="int" >       12        5        8        9       16 </v>
   <v type="int" >       12        5        6        9       16 </v>
   <v type="int" >       12        6        9       16       16 </v>
   <v type="int" >       12        8        9       16       17 </v>
   <v type="int" >       12        9       15       16       17 </v>
   <v type="int" >       12        9       15       16       16 </v>
   <v type="int" >       12        3        5        6        6 </v>
   <v type="int" >        6        3        3        6        6 </v>
   <v type="int" >       12        5        6        6       16 </v>
   <v type="int" >        6        6        6       16       16 </v>
   <v type="int" >       12        4        5        8       13 </v>
   <v type="int" >       12        5        8       13       16 </v>
   <v type="int" >       12        8       13       16       17 </v>
   <v type="int" >       12       10       11       14       18 </v>
   <v type="int" >       12       11       14       15       19 </v>
   <v type="int" >       12       11       12       15       19 </v>
   <v type="int" >       12       11       14       18       19 </v>
   <v type="int" >       12       12       15       16       17 </v>
   <v type="int" >       12       12       13       16       17 </v>
   <v type="int" >       12       12       15       17       19 </v>
   <v type="int" >       12       14       15       17       19 </v>
   <v type="int" >       12       14       15       19       19 </v>
   <v type="int" >       12       14       18       19       19 </v>
   <v type="int" >       12       15       15       16       17 </v>
   <v type="int" >        6       15       15       16       16 </v>
   <v type="int" >       12       15       15       17       19 </v>
   <v type="int" >        6       15       15       19       19 </v>
   <v type="int" >        6       18       18       19       19 </v>
  </varray>
  <i name="volumeweight">      0.00133333 </i>
 </kpoints>
 <parameters>
  <separator name="general" >
   <i type="string" name="SYSTEM">unknown system</i>
   <i type="logical" name="LCOMPAT"> F  </i>
  </separator>
  <separator name="electronic" >
   <i type="string" name="PREC">accura</i>
   <i name="ENMAX">    500.00000000</i>
   <i name="ENAUG">    605.39200000</i>
   <i name="EDIFF">      0.00001000</i>
   <i type="int" name="IALGO">    38</i>
   <i type="int" name="IWAVPR">    10</i>
   <i type="int" name="NBANDS">    96</i>
   <i name="NELECT">    161.00000000</i>
   <i type="int" name="TURBO">     0</i>
   <i type="int" name="IRESTART">     0</i>
   <i type="int" name="NREBOOT">     0</i>
   <i type="int" name="NMIN">     0</i>
   <i name="EREF">      0.00000000</i>
   <separator name="electronic smearing" >
    <i type="int" name="ISMEAR">    -5</i>
    <i name="SIGMA">      0.20000000</i>
    <i name="KSPACING">      0.50000000</i>
    <i type="logical" name="KGAMMA"> T  </i>
   </separator>
   <separator name="electronic projectors" >
    <i type="logical" name="LREAL"> F  </i>
    <v name="ROPT">      0.00000000      0.00000000      0.00000000      0.00000000</v>
    <i type="int" name="LMAXPAW">  -100</i>
    <i type="int" name="LMAXMIX">     2</i>
    <i type="logical" name="NLSPLINE"> F  </i>
   </separator>
   <separator name="electronic startup" >
    <i type="int" name="ISTART">     1</i>
    <i type="int" name="ICHARG">     0</i>
    <i type="int" name="INIWAV">     1</i>
   </separator>
   <separator name="electronic spin" >
    <i type="int" name="ISPIN">     1</i>
    <i type="logical" name="LNONCOLLINEAR"> F  </i>
    <v name="MAGMOM">      1.00000000      1.00000000      1.00000000      1.00000000      1.00000000      1.00000000      1.00000000      1.00000000      1.00000000      1.00000000      1.00000000      1.00000000      1.00000000      1.00000000      1.00000000      1.00000000      1.00000000      1.00000000      1.00000000      1.00000000
</v>
    <i name="NUPDOWN">     -1.00000000</i>
    <i type="logical" name="LSORBIT"> F  </i>
    <v name="SAXIS">      0.00000000      0.00000000      1.00000000</v>
    <i type="logical" name="LSPIRAL"> F  </i>
    <v name="QSPIRAL">      0.00000000      0.00000000      0.00000000</v>
    <i type="logical" name="LZEROZ"> F  </i>
   </separator>
   <separator name="electronic exchange-correlation" >
    <i type="logical" name="LASPH"> F  </i>
    <i type="logical" name="LMETAGGA"> F  </i>
   </separator>
   <separator name="electronic convergence" >
    <i type="int" name="NELM">    60</i>
    <i type="int" name="NELMDL">     0</i>
    <i type="int" name="NELMIN">     2</i>
    <i name="ENINI">    500.00000000</i>
    <separator name="electronic convergence detail" >
     <i type="logical" name="LDIAG"> T  </i>
     <i type="logical" name="LSUBROT"> F  </i>
     <i name="WEIMIN">      0.00000000</i>
     <i name="EBREAK">      0.00000003</i>
     <i name="DEPER">      0.30000000</i>
     <i type="int" name="NRMM">     4</i>
     <i name="TIME">      0.40000000</i>
    </separator>
   </separator>
   <separator name="electronic mixer" >
    <i name="AMIX">      0.40000000</i>
    <i name="BMIX">      1.00000000</i>
    <i name="AMIN">      0.10000000</i>
    <i name="AMIX_MAG">      1.60000000</i>
    <i name="BMIX_MAG">      1.00000000</i>
    <separator name="electronic mixer details" >
     <i type="int" name="IMIX">     4</i>
     <i type="logical" name="MIXFIRST"> F  </i>
     <i type="int" name="MAXMIX">   -45</i>
     <i name="WC">    100.00000000</i>
     <i type="int" name="INIMIX">     1</i>
     <i type="int" name="MIXPRE">     1</i>
     <i type="int" name="MREMOVE">     5</i>
    </separator>
   </separator>
   <separator name="electronic dipolcorrection" >
    <i type="logical" name="LDIPOL"> F  </i>
    <i type="logical" name="LMONO"> F  </i>
    <i type="int" name="IDIPOL">     0</i>
    <i name="EPSILON">      1.00000000</i>
    <v name="DIPOL">   -100.00000000   -100.00000000   -100.00000000</v>
    <i name="EFIELD">      0.00000000</i>
   </separator>
  </separator>
  <separator name="grids" >
   <i type="int" name="NGX">    72</i>
   <i type="int" name="NGY">    72</i>
   <i type="int" name="NGZ">    72</i>
   <i type="int" name="NGXF">   144</i>
   <i type="int" name="NGYF">   144</i>
   <i type="int" name="NGZF">   144</i>
   <i type="logical" name="ADDGRID"> F  </i>
  </separator>
  <separator name="ionic" >
   <i type="int" name="NSW">     0</i>
   <i type="int" name="IBRION">    -1</i>
   <i type="int" name="MDALGO">     0</i>
   <i type="int" name="ISIF">     2</i>
   <i name="PSTRESS">      0.00000000</i>
   <i name="EDIFFG">     -0.01000000</i>
   <i type="int" name="NFREE">     0</i>
   <i name="POTIM">      0.50000000</i>
   <i name="SMASS">     -3.00000000</i>
   <i name="SCALEE">      1.00000000</i>
  </separator>
  <separator name="ionic md" >
   <i name="TEBEG">      0.00010000</i>
   <i name="TEEND">      0.00010000</i>
   <i type="int" name="NBLOCK">     1</i>
   <i type="int" name="KBLOCK">     1</i>
   <i type="int" name="NPACO">   256</i>
   <i name="APACO">     16.00000000</i>
  </separator>
  <separator name="symmetry" >
   <i type="int" name="ISYM">     2</i>
   <i name="SYMPREC">      0.00001000</i>
  </separator>
  <separator name="dos" >
   <i type="int" name="LORBIT">     0</i>
   <v name="RWIGS">     -1.00000000     -1.00000000     -1.00000000     -1.00000000</v>
   <i type="int" name="NEDOS">   301</i>
   <i name="EMIN">     10.00000000</i>
   <i name="EMAX">    -10.00000000</i>
   <i name="EFERMI">      0.00000000</i>
  </separator>
  <separator name="writing" >
   <i type="int" name="NWRITE">     2</i>
   <i type="logical" name="LWAVE"> T  </i>
   <i type="logical" name="LDOWNSAMPLE"> F  </i>
   <i type="logical" name="LCHARG"> T  </i>
   <i type="logical" name="LPARD"> F  </i>
   <i type="logical" name="LVTOT"> F  </i>
   <i type="logical" name="LVHAR"> F  </i>
   <i type="logical" name="LELF"> F  </i>
   <i type="logical" name="LOPTICS"> F  </i>
   <v name="STM">      0.00000000      0.00000000      0.00000000      0.00000000      0.00000000      0.00000000      0.00000000</v>
  </separator>
  <separator name="performance" >
   <i type="int" name="NPAR">     4</i>
   <i type="int" name="NSIM">     4</i>
   <i type="int" name="NBLK">    -1</i>
   <i type="logical" name="LPLANE"> T  </i>
   <i type="logical" name="LSCALAPACK"> T  </i>
   <i type="logical" name="LSCAAWARE"> F  </i>
   <i type="logical" name="LSCALU"> F  </i>
   <i type="logical" name="LASYNC"> F  </i>
   <i type="logical" name="LORBITALREAL"> F  </i>
  </separator>
  <separator name="miscellaneous" >
   <i type="int" name="IDIOT">     3</i>
   <i type="int" name="ISPECIAL">     0</i>
   <i type="logical" name="LMUSIC"> F  </i>
   <v name="POMASS">     92.91000000     16.00000000     87.62000000     47.88000000</v>
   <v name="DARWINR">      0.00000000      0.00000000      0.00000000      0.00000000</v>
   <v name="DARWINV">      1.00000000      1.00000000      1.00000000      1.00000000</v>
   <i type="logical" name="LCORR"> T  </i>
  </separator>
  <i type="logical" name="GGA_COMPAT"> T  </i>
  <i type="logical" name="LBERRY"> F  </i>
  <i type="int" name="ICORELEVEL">     0</i>
  <i type="logical" name="LDAU"> F  </i>
  <i type="int" name="I_CONSTRAINED_M">     0</i>
  <separator name="electronic exchange-correlation" >
   <i type="string" name="GGA">--</i>
   <i type="int" name="VOSKOWN">     0</i>
   <i type="logical" name="LHFCALC"> F  </i>
   <i type="string" name="PRECFOCK"></i>
   <i type="logical" name="LSYMGRAD"> F  </i>
   <i type="logical" name="LHFONE"> F  </i>
   <i type="logical" name="LRHFCALC"> F  </i>
   <i type="logical" name="LTHOMAS"> F  </i>
   <i type="logical" name="LMODELHF"> F  </i>
   <i name="ENCUT4O">     -1.00000000</i>
   <i type="int" name="EXXOEP">     0</i>
   <i type="int" name="FOURORBIT">     0</i>
   <i name="AEXX">      0.00000000</i>
   <i name="HFALPHA">      0.00000000</i>
   <i name="MCALPHA">      0.00000000</i>
   <i name="ALDAX">      1.00000000</i>
   <i name="AGGAX">      1.00000000</i>
   <i name="ALDAC">      1.00000000</i>
   <i name="AGGAC">      1.00000000</i>
   <i type="int" name="NKREDX">     1</i>
   <i type="int" name="NKREDY">     1</i>
   <i type="int" name="NKREDZ">     1</i>
   <i type="logical" name="SHIFTRED"> F  </i>
   <i type="logical" name="ODDONLY"> F  </i>
   <i type="logical" name="EVENONLY"> F  </i>
   <i type="int" name="LMAXFOCK">     0</i>
   <i type="int" name="NMAXFOCKAE">     0</i>
   <i type="logical" name="LFOCKAEDFT"> F  </i>
   <i name="HFSCREEN">      0.00000000</i>
   <i name="HFSCREENC">      0.00000000</i>
   <i type="int" name="NBANDSGWLOW">     0</i>
  </separator>
  <separator name="vdW DFT" >
   <i type="logical" name="LUSE_VDW"> F  </i>
   <i name="Zab_VDW">     -0.84910000</i>
   <i name="PARAM1">      0.12340000</i>
   <i name="PARAM2">      1.00000000</i>
   <i name="PARAM3">      0.00000000</i>
  </separator>
  <separator name="model GW" >
   <i type="int" name="MODEL_GW">     0</i>
   <i name="MODEL_EPS0">      7.51904727</i>
   <i name="MODEL_ALPHA">      1.00000000</i>
  </separator>
  <separator name="linear response parameters" >
   <i type="logical" name="LEPSILON"> F  </i>
   <i type="logical" name="LRPA"> F  </i>
   <i type="logical" name="LNABLA"> F  </i>
   <i type="logical" name="LVEL"> F  </i>
   <i type="int" name="KINTER">     0</i>
   <i name="CSHIFT">      0.10000000</i>
   <i name="OMEGAMAX">     -1.00000000</i>
   <i name="DEG_THRESHOLD">      0.00200000</i>
   <i name="RTIME">     -0.10000000</i>
   <i name="WPLASMAI">      0.00000000</i>
   <v name="DFIELD">      0.00000000      0.00000000      0.00000000</v>
   <v name="WPLASMA">      0.00000000      0.00000000      0.00000000      0.00000000      0.00000000      0.00000000      0.00000000      0.00000000      0.00000000</v>
  </separator>
  <separator name="orbital magnetization" >
   <i type="logical" name="NUCIND"> F  </i>
   <v name="MAGPOS">      0.00000000      0.00000000      0.00000000</v>
   <i type="logical" name="LNICSALL"> T  </i>
   <i type="logical" name="ORBITALMAG"> F  </i>
   <i type="logical" name="LMAGBLOCH"> F  </i>
   <i type="logical" name="LCHIMAG"> F  </i>
   <i type="logical" name="LGAUGE"> T  </i>
   <i type="int" name="MAGATOM">     0</i>
   <v name="MAGDIPOL">      0.00000000      0.00000000      0.00000000</v>
   <v name="AVECCONST">      0.00000000      0.00000000      0.00000000</v>
  </separator>
  <separator name="response functions" >
   <i type="logical" name="LADDER"> F  </i>
   <i type="logical" name="LRPAFORCE"> F  </i>
   <i type="logical" name="LFXC"> F  </i>
   <i type="logical" name="LHARTREE"> T  </i>
   <i type="int" name="IBSE">     0</i>
   <v type="int" name="KPOINT">    -1     0     0     0</v>
   <i type="logical" name="LTCTE"> F  </i>
   <i type="logical" name="LTETE"> F  </i>
   <i type="logical" name="LTRIPLET"> F  </i>
   <i type="logical" name="LFXCEPS"> F  </i>
   <i type="logical" name="LFXHEG"> F  </i>
   <i type="int" name="NATURALO">     2</i>
   <i type="logical" name="L2ORDER"> F  </i>
   <i type="logical" name="LMP2LT"> F  </i>
   <i type="logical" name="LUSEW"> F  </i>
   <i name="ENCUTGW">     -2.00000000</i>
   <i name="ENCUTGWSOFT">     -2.00000000</i>
   <i name="ENCUTLF">     -1.00000000</i>
   <i type="int" name="LMAXMP2">    -1</i>
   <i name="SCISSOR">      0.00000000</i>
   <i type="int" name="NOMEGA">     0</i>
   <i type="int" name="NOMEGAR">     0</i>
   <i type="int" name="NBANDSGW">    -1</i>
   <i type="int" name="NBANDSO">    -1</i>
   <i type="int" name="NBANDSV">    -1</i>
   <i type="int" name="NELM">     1</i>
   <i type="int" name="NELMHF">     1</i>
   <i type="int" name="DIM">     3</i>
   <i type="int" name="ANTIRES">     0</i>
   <i name="OMEGAMAX">    -30.00000000</i>
   <i name="OMEGAMIN">    -30.00000000</i>
   <i name="OMEGATL">   -200.00000000</i>
   <i type="int" name="OMEGAGRID">   140</i>
   <i name="CSHIFT">     -0.10000000</i>
   <i type="logical" name="SELFENERGY"> F  </i>
   <i type="logical" name="LSPECTRAL"> F  </i>
   <i type="logical" name="LSPECTRALGW"> F  </i>
   <i type="logical" name="LSINGLES"> F  </i>
   <i type="logical" name="LFERMIGW"> F  </i>
   <i type="logical" name="ODDONLYGW"> F  </i>
   <i type="logical" name="EVENONLYGW"> F  </i>
   <i type="int" name="NKREDLFX">     1</i>
   <i type="int" name="NKREDLFY">     1</i>
   <i type="int" name="NKREDLFZ">     1</i>
   <i type="int" name="MAXMEM">  2800</i>
   <i type="int" name="TELESCOPE">     0</i>
   <i type="int" name="TAUPAR">     1</i>
   <i type="int" name="OMEGAPAR">    -1</i>
   <i name="LAMBDA">      1.00000000</i>
  </separator>
  <separator name="External order field" >
   <i name="OFIELD_KAPPA">      0.00000000</i>
   <v name="OFIELD_K">      0.00000000      0.00000000      0.00000000</v>
   <i name="OFIELD_Q6_NEAR">      0.00000000</i>
   <i name="OFIELD_Q6_FAR">      0.00000000</i>
   <i name="OFIELD_A">      0.00000000</i>
  </separator>
 </parameters>
 <atominfo>
  <atoms>      20 </atoms>
  <types>       4 </types>
  <array name="atoms" >
   <dimension dim="1">ion</dimension>
   <field type="string">element</field>
   <field type="int">atomtype</field>
   <set>
    <rc><c>Nb</c><c>   1</c></rc>
    <rc><c>O </c><c>   2</c></rc>
    <rc><c>O </c><c>   2</c></rc>
    <rc><c>O </c><c>   2</c></rc>
    <rc><c>O </c><c>   2</c></rc>
    <rc><c>O </c><c>   2</c></rc>
    <rc><c>O </c><c>   2</c></rc>
    <rc><c>O </c><c>   2</c></rc>
    <rc><c>O </c><c>   2</c></rc>
    <rc><c>O </c><c>   2</c></rc>
    <rc><c>O </c><c>   2</c></rc>
    <rc><c>O </c><c>   2</c></rc>
    <rc><c>O </c><c>   2</c></rc>
    <rc><c>Sr</c><c>   3</c></rc>
    <rc><c>Sr</c><c>   3</c></rc>
    <rc><c>Sr</c><c>   3</c></rc>
    <rc><c>Sr</c><c>   3</c></rc>
    <rc><c>Ti</c><c>   4</c></rc>
    <rc><c>Ti</c><c>   4</c></rc>
    <rc><c>Ti</c><c>   4</c></rc>
   </set>
  </array>
  <array name="atomtypes" >
   <dimension dim="1">type</dimension>
   <field type="int">atomspertype</field>
   <field type="string">element</field>
   <field>mass</field>
   <field>valence</field>
   <field type="string">pseudopotential</field>
   <set>
    <rc><c>   1</c><c>Nb</c><c>     92.91000000</c><c>     13.00000000</c><c>  PAW_PBE Nb_sv 25May2007               </c></rc>
    <rc><c>  12</c><c>O </c><c>     16.00000000</c><c>      6.00000000</c><c>  PAW_PBE O 08Apr2002                   </c></rc>
    <rc><c>   4</c><c>Sr</c><c>     87.62000000</c><c>     10.00000000</c><c>  PAW_PBE Sr_sv 07Sep2000               </c></rc>
    <rc><c>   3</c><c>Ti</c><c>     47.88000000</c><c>     12.00000000</c><c>  PAW_PBE Ti_sv 26Sep2005               </c></rc>
   </set>
  </array>
 </atominfo>
 <structure name="initialpos" >
  <crystal>
   <varray name="basis" >
    <v>       3.97524207      -7.94597422       3.97524207 </v>
    <v>       7.94597422      -3.97524207       3.97524207 </v>
    <v>       3.97524207      -3.97524207       7.94597422 </v>
   </varray>
   <i name="volume">    250.63490914 </i>
   <varray name="rec_basis" >
    <v>      -0.06297854      -0.18886418      -0.06297854 </v>
    <v>       0.18886418       0.06297854      -0.06297854 </v>
    <v>      -0.06297854       0.06297854       0.18886418 </v>
   </varray>
  </crystal>
  <varray name="positions" >
   <v>       0.37500000       0.37500000       0.37500000 </v>
   <v>       0.24948453       0.75186550       0.24948453 </v>
   <v>       0.99813450       0.50051547       0.50051547 </v>
   <v>       0.24948453       0.24948453       0.75186550 </v>
   <v>       0.50051547       0.99813450       0.50051547 </v>
   <v>       0.24992588       0.74995286       0.74995286 </v>
   <v>       0.50051547       0.50051547       0.99813450 </v>
   <v>       0.74995286       0.24992588       0.74995286 </v>
   <v>       0.50007412       0.00004714       0.00004714 </v>
   <v>       0.74995286       0.74995286       0.24992588 </v>
   <v>       0.00004714       0.50007412       0.00004714 </v>
   <v>       0.75186550       0.24948453       0.24948453 </v>
   <v>       0.00004714       0.00004714       0.50007412 </v>
   <v>       0.75215888       0.75215888       0.75215888 </v>
   <v>       0.99784112       0.99784112       0.99784112 </v>
   <v>       0.24830383       0.24830383       0.24830383 </v>
   <v>       0.50169617       0.50169617       0.50169617 </v>
   <v>       0.62286994       0.62286994       0.62286994 </v>
   <v>       0.87500000       0.87500000       0.87500000 </v>
   <v>       0.12713006       0.12713006       0.12713006 </v>
  </varray>
 </structure>
 <calculation>
  <scstep>
   <time name="dav">    3.26    3.27</time>
   <time name="total">    3.67    3.69</time>
   <energy>
    <i name="alphaZ">    893.53913258 </i>
    <i name="ewald"> -11530.16532677 </i>
    <i name="hartreedc">  -3481.97572180 </i>
    <i name="XCdc">    725.97867546 </i>
    <i name="pawpsdc">  18475.15506610 </i>
    <i name="pawaedc"> -18375.94711738 </i>
    <i name="eentropy">      0.00000000 </i>
    <i name="bandstr">  -1748.09352117 </i>
    <i name="atom">  14879.83824494 </i>
    <i name="e_fr_energy">   -161.67056804 </i>
    <i name="e_wo_entrp">   -161.67056804 </i>
    <i name="e_0_energy">   -161.67056804 </i>
   </energy>
  </scstep>
  <scstep>
   <time name="dav">    3.77    3.78</time>
   <time name="total">    4.19    4.20</time>
   <energy>
    <i name="e_fr_energy">   -161.67056907 </i>
    <i name="e_wo_entrp">   -161.67056907 </i>
    <i name="e_0_energy">   -161.67056907 </i>
   </energy>
  </scstep>
  <scstep>
   <time name="dav">    3.12    3.13</time>
   <time name="total">    3.22    3.23</time>
   <energy>
    <i name="alphaZ">    893.53913258 </i>
    <i name="ewald"> -11530.16532677 </i>
    <i name="hartreedc">  -3482.05444127 </i>
    <i name="XCdc">    725.98277521 </i>
    <i name="pawpsdc">  18472.36417223 </i>
    <i name="pawaedc"> -18373.14451750 </i>
    <i name="eentropy">      0.00000000 </i>
    <i name="bandstr">  -1748.03060020 </i>
    <i name="atom">  14879.83824494 </i>
    <i name="e_fr_energy">   -161.67056078 </i>
    <i name="e_wo_entrp">   -161.67056078 </i>
    <i name="e_0_energy">   -161.67056078 </i>
   </energy>
  </scstep>
  <structure>
   <crystal>
    <varray name="basis" >
     <v>       3.97524207      -7.94597422       3.97524207 </v>
     <v>       7.94597422      -3.97524207       3.97524207 </v>
     <v>       3.97524207      -3.97524207       7.94597422 </v>
    </varray>
    <i name="volume">    250.63490914 </i>
    <varray name="rec_basis" >
     <v>      -0.06297854      -0.18886418      -0.06297854 </v>
     <v>       0.18886418       0.06297854      -0.06297854 </v>
     <v>      -0.06297854       0.06297854       0.18886418 </v>
    </varray>
   </crystal>
   <varray name="positions" >
    <v>       0.37500000       0.37500000       0.37500000 </v>
    <v>       0.24948453       0.75186550       0.24948453 </v>
    <v>       0.99813450       0.50051547       0.50051547 </v>
    <v>       0.24948453       0.24948453       0.75186550 </v>
    <v>       0.50051547       0.99813450       0.50051547 </v>
    <v>       0.24992588       0.74995286       0.74995286 </v>
    <v>       0.50051547       0.50051547       0.99813450 </v>
    <v>       0.74995286       0.24992588       0.74995286 </v>
    <v>       0.50007412       0.00004714       0.00004714 </v>
    <v>       0.74995286       0.74995286       0.24992588 </v>
    <v>       0.00004714       0.50007412       0.00004714 </v>
    <v>       0.75186550       0.24948453       0.24948453 </v>
    <v>       0.00004714       0.00004714       0.50007412 </v>
    <v>       0.75215888       0.75215888       0.75215888 </v>
    <v>       0.99784112       0.99784112       0.99784112 </v>
    <v>       0.24830383       0.24830383       0.24830383 </v>
    <v>       0.50169617       0.50169617       0.50169617 </v>
    <v>       0.62286994       0.62286994       0.62286994 </v>
    <v>       0.87500000       0.87500000       0.87500000 </v>
    <v>       0.12713006       0.12713006       0.12713006 </v>
   </varray>
  </structure>
  <varray name="forces" >
   <v>       0.00000000      -0.00000000       0.00000000 </v>
   <v>      -0.00323678       0.00153593      -0.00153593 </v>
   <v>       0.00153593      -0.00323678       0.00153593 </v>
   <v>      -0.00153593       0.00153593      -0.00323678 </v>
   <v>       0.00323678      -0.00153593       0.00153593 </v>
   <v>       0.00012333      -0.00182388       0.00012333 </v>
   <v>       0.00153593      -0.00153593       0.00323678 </v>
   <v>       0.00182388      -0.00012333       0.00012333 </v>
   <v>      -0.00012333       0.00182388      -0.00012333 </v>
   <v>       0.00012333      -0.00012333       0.00182388 </v>
   <v>      -0.00182388       0.00012333      -0.00012333 </v>
   <v>      -0.00153593       0.00323678      -0.00153593 </v>
   <v>      -0.00012333       0.00012333      -0.00182388 </v>
   <v>      -0.00184884       0.00184884      -0.00184884 </v>
   <v>       0.00184884      -0.00184884       0.00184884 </v>
   <v>       0.00170583      -0.00170583       0.00170583 </v>
   <v>      -0.00170583       0.00170583      -0.00170583 </v>
   <v>       0.00391516      -0.00391516       0.00391516 </v>
   <v>       0.00000000      -0.00000000       0.00000000 </v>
   <v>      -0.00391516       0.00391516      -0.00391516 </v>
  </varray>
  <varray name="stress" >
   <v>       0.96207427      -0.20713981       0.20713981 </v>
   <v>      -0.20713981       0.96207427      -0.20713981 </v>
   <v>       0.20713981      -0.20713981       0.96207427 </v>
  </varray>
  <energy>
   <i name="e_fr_energy">   -161.67056078 </i>
   <i name="e_wo_entrp">   -161.67056078 </i>
   <i name="e_0_energy">      0.00000000 </i>
  </energy>
  <time name="totalsc">   16.17   17.69</time>
  <eigenvalues>
   <array>
    <dimension dim="1">band</dimension>
    <dimension dim="2">kpoint</dimension>
    <dimension dim="3">spin</dimension>
    <field>eigene</field>
    <field>occ</field>
    <set>
     <set comment="spin 1">
      <set comment="kpoint 1">
       <r>  -52.0322    1.0000 </r>
       <r>  -52.0321    1.0000 </r>
       <r>  -52.0179    1.0000 </r>
       <r>  -50.5073    1.0000 </r>
       <r>  -28.9808    1.0000 </r>
       <r>  -28.9630    1.0000 </r>
       <r>  -28.8939    1.0000 </r>
       <r>  -28.8635    1.0000 </r>
       <r>  -28.3285    1.0000 </r>
       <r>  -28.3285    1.0000 </r>
       <r>  -28.3220    1.0000 </r>
       <r>  -28.3137    1.0000 </r>
       <r>  -28.3137    1.0000 </r>
       <r>  -28.3032    1.0000 </r>
       <r>  -28.2803    1.0000 </r>
       <r>  -28.2803    1.0000 </r>
       <r>  -28.2732    1.0000 </r>
       <r>  -26.7066    1.0000 </r>
       <r>  -26.7066    1.0000 </r>
       <r>  -26.7033    1.0000 </r>
       <r>  -13.2781    1.0000 </r>
       <r>  -12.9646    1.0000 </r>
       <r>  -12.9179    1.0000 </r>
       <r>  -12.6021    1.0000 </r>
       <r>  -12.6021    1.0000 </r>
       <r>  -12.2188    1.0000 </r>
       <r>  -12.2188    1.0000 </r>
       <r>  -12.2180    1.0000 </r>
       <r>  -12.2180    1.0000 </r>
       <r>  -11.9545    1.0000 </r>
       <r>  -11.9488    1.0000 </r>
       <r>  -11.9488    1.0000 </r>
       <r>  -11.1517    1.0000 </r>
       <r>  -11.1517    1.0000 </r>
       <r>  -11.1458    1.0000 </r>
       <r>  -10.9578    1.0000 </r>
       <r>  -10.9578    1.0000 </r>
       <r>  -10.9293    1.0000 </r>
       <r>  -10.8525    1.0000 </r>
       <r>  -10.8525    1.0000 </r>
       <r>  -10.8142    1.0000 </r>
       <r>  -10.8142    1.0000 </r>
       <r>  -10.5522    1.0000 </r>
       <r>  -10.5422    1.0000 </r>
       <r>   -0.4591    1.0000 </r>
       <r>   -0.3260    1.0000 </r>
       <r>   -0.3260    1.0000 </r>
       <r>   -0.1144    1.0000 </r>
       <r>    0.1840    1.0000 </r>
       <r>    0.1840    1.0000 </r>
       <r>    0.2632    1.0000 </r>
       <r>    0.4417    1.0000 </r>
       <r>    0.7230    1.0000 </r>
       <r>    0.7230    1.0000 </r>
       <r>    0.9554    1.0000 </r>
       <r>    0.9554    1.0000 </r>
       <r>    1.0703    1.0000 </r>
       <r>    1.0703    1.0000 </r>
       <r>    1.2283    1.0000 </r>
       <r>    1.2283    1.0000 </r>
       <r>    1.2560    1.0000 </r>
       <r>    1.2742    1.0000 </r>
       <r>    1.3687    1.0000 </r>
       <r>    1.3687    1.0000 </r>
       <r>    1.3865    1.0000 </r>
       <r>    2.8274    1.0000 </r>
       <r>    2.8485    1.0000 </r>
       <r>    2.8485    1.0000 </r>
       <r>    3.0318    1.0000 </r>
       <r>    3.0318    1.0000 </r>
       <r>    3.0735    1.0000 </r>
       <r>    3.0735    1.0000 </r>
       <r>    3.3711    1.0000 </r>
       <r>    3.4055    1.0000 </r>
       <r>    3.5633    1.0000 </r>
       <r>    3.5944    1.0000 </r>
       <r>    3.5944    1.0000 </r>
       <r>    3.9705    1.0000 </r>
       <r>    3.9705    1.0000 </r>
       <r>    3.9917    1.0000 </r>
       <r>    6.0741    1.0000 </r>
       <r>    6.0743    1.3733 </r>
       <r>    6.0743    1.3640 </r>
       <r>    7.5822    0.0000 </r>
       <r>    7.6200    0.0000 </r>
       <r>    7.6200    0.0000 </r>
       <r>    7.6557    0.0000 </r>
       <r>    7.7027    0.0000 </r>
       <r>    7.7027    0.0000 </r>
       <r>    8.6674    0.0000 </r>
       <r>    8.6674    0.0000 </r>
       <r>    8.8157    0.0000 </r>
       <r>    8.8157    0.0000 </r>
       <r>    8.8182    0.0000 </r>
       <r>    9.3276    0.0000 </r>
       <r>    9.3276    0.0000 </r>
      </set>
      <set comment="kpoint 2">
       <r>  -52.0322    1.0000 </r>
       <r>  -52.0321    1.0000 </r>
       <r>  -52.0179    1.0000 </r>
       <r>  -50.5073    1.0000 </r>
       <r>  -28.9799    1.0000 </r>
       <r>  -28.9645    1.0000 </r>
       <r>  -28.8936    1.0000 </r>
       <r>  -28.8667    1.0000 </r>
       <r>  -28.3291    1.0000 </r>
       <r>  -28.3261    1.0000 </r>
       <r>  -28.3230    1.0000 </r>
       <r>  -28.3139    1.0000 </r>
       <r>  -28.3108    1.0000 </r>
       <r>  -28.3054    1.0000 </r>
       <r>  -28.2797    1.0000 </r>
       <r>  -28.2777    1.0000 </r>
       <r>  -28.2739    1.0000 </r>
       <r>  -26.7068    1.0000 </r>
       <r>  -26.7058    1.0000 </r>
       <r>  -26.7035    1.0000 </r>
       <r>  -13.2845    1.0000 </r>
       <r>  -13.0606    1.0000 </r>
       <r>  -13.0289    1.0000 </r>
       <r>  -12.6077    1.0000 </r>
       <r>  -12.5052    1.0000 </r>
       <r>  -12.3123    1.0000 </r>
       <r>  -12.2226    1.0000 </r>
       <r>  -12.2150    1.0000 </r>
       <r>  -12.1576    1.0000 </r>
       <r>  -12.1512    1.0000 </r>
       <r>  -12.0923    1.0000 </r>
       <r>  -12.0298    1.0000 </r>
       <r>  -11.0953    1.0000 </r>
       <r>  -10.9885    1.0000 </r>
       <r>  -10.9747    1.0000 </r>
       <r>  -10.9267    1.0000 </r>
       <r>  -10.9142    1.0000 </r>
       <r>  -10.8858    1.0000 </r>
       <r>  -10.8828    1.0000 </r>
       <r>  -10.7955    1.0000 </r>
       <r>  -10.6778    1.0000 </r>
       <r>  -10.6763    1.0000 </r>
       <r>  -10.5538    1.0000 </r>
       <r>  -10.5382    1.0000 </r>
       <r>   -0.4831    1.0000 </r>
       <r>   -0.3099    1.0000 </r>
       <r>   -0.2236    1.0000 </r>
       <r>   -0.0877    1.0000 </r>
       <r>    0.0754    1.0000 </r>
       <r>    0.3002    1.0000 </r>
       <r>    0.3126    1.0000 </r>
       <r>    0.3896    1.0000 </r>
       <r>    0.5821    1.0000 </r>
       <r>    0.6000    1.0000 </r>
       <r>    0.6559    1.0000 </r>
       <r>    0.9137    1.0000 </r>
       <r>    0.9258    1.0000 </r>
       <r>    1.0582    1.0000 </r>
       <r>    1.1753    1.0000 </r>
       <r>    1.1753    1.0000 </r>
       <r>    1.3245    1.0000 </r>
       <r>    1.3534    1.0000 </r>
       <r>    1.4734    1.0000 </r>
       <r>    1.7983    1.0000 </r>
       <r>    2.0962    1.0000 </r>
       <r>    2.4004    1.0000 </r>
       <r>    2.4746    1.0000 </r>
       <r>    2.7455    1.0000 </r>
       <r>    2.7513    1.0000 </r>
       <r>    2.8342    1.0000 </r>
       <r>    2.8822    1.0000 </r>
       <r>    2.9325    1.0000 </r>
       <r>    3.0645    1.0000 </r>
       <r>    3.2485    1.0000 </r>
       <r>    3.3525    1.0000 </r>
       <r>    3.3587    1.0000 </r>
       <r>    3.4787    1.0000 </r>
       <r>    3.6885    1.0000 </r>
       <r>    3.7208    1.0000 </r>
       <r>    3.9189    1.0000 </r>
       <r>    6.2225    1.0019 </r>
       <r>    6.5794    0.1171 </r>
       <r>    6.5868    0.1103 </r>
       <r>    7.3551    0.0000 </r>
       <r>    7.4734    0.0000 </r>
       <r>    7.5729    0.0000 </r>
       <r>    7.8981    0.0000 </r>
       <r>    8.0222    0.0000 </r>
       <r>    8.0388    0.0000 </r>
       <r>    8.5803    0.0000 </r>
       <r>    8.5886    0.0000 </r>
       <r>    8.7223    0.0000 </r>
       <r>    8.7838    0.0000 </r>
       <r>    9.2278    0.0000 </r>
       <r>    9.7417    0.0000 </r>
       <r>    9.7619    0.0000 </r>
      </set>
      <set comment="kpoint 3">
       <r>  -52.0321    1.0000 </r>
       <r>  -52.0321    1.0000 </r>
       <r>  -52.0180    1.0000 </r>
       <r>  -50.5073    1.0000 </r>
       <r>  -28.9772    1.0000 </r>
       <r>  -28.9680    1.0000 </r>
       <r>  -28.8915    1.0000 </r>
       <r>  -28.8738    1.0000 </r>
       <r>  -28.3302    1.0000 </r>
       <r>  -28.3236    1.0000 </r>
       <r>  -28.3199    1.0000 </r>
       <r>  -28.3142    1.0000 </r>
       <r>  -28.3086    1.0000 </r>
       <r>  -28.3079    1.0000 </r>
       <r>  -28.2786    1.0000 </r>
       <r>  -28.2761    1.0000 </r>
       <r>  -28.2740    1.0000 </r>
       <r>  -26.7069    1.0000 </r>
       <r>  -26.7050    1.0000 </r>
       <r>  -26.7034    1.0000 </r>
       <r>  -13.3406    1.0000 </r>
       <r>  -13.1689    1.0000 </r>
       <r>  -13.0176    1.0000 </r>
       <r>  -12.6829    1.0000 </r>
       <r>  -12.6074    1.0000 </r>
       <r>  -12.3551    1.0000 </r>
       <r>  -12.3539    1.0000 </r>
       <r>  -12.2839    1.0000 </r>
       <r>  -12.1778    1.0000 </r>
       <r>  -12.1535    1.0000 </r>
       <r>  -12.1493    1.0000 </r>
       <r>  -12.1250    1.0000 </r>
       <r>  -10.9786    1.0000 </r>
       <r>  -10.9701    1.0000 </r>
       <r>  -10.8772    1.0000 </r>
       <r>  -10.8579    1.0000 </r>
       <r>  -10.8205    1.0000 </r>
       <r>  -10.7341    1.0000 </r>
       <r>  -10.7103    1.0000 </r>
       <r>  -10.6461    1.0000 </r>
       <r>  -10.6155    1.0000 </r>
       <r>  -10.5926    1.0000 </r>
       <r>  -10.5203    1.0000 </r>
       <r>  -10.4477    1.0000 </r>
       <r>   -0.6128    1.0000 </r>
       <r>   -0.3089    1.0000 </r>
       <r>   -0.2834    1.0000 </r>
       <r>   -0.0581    1.0000 </r>
       <r>    0.0434    1.0000 </r>
       <r>    0.2287    1.0000 </r>
       <r>    0.3551    1.0000 </r>
       <r>    0.4596    1.0000 </r>
       <r>    0.4697    1.0000 </r>
       <r>    0.6285    1.0000 </r>
       <r>    0.7772    1.0000 </r>
       <r>    1.0361    1.0000 </r>
       <r>    1.1081    1.0000 </r>
       <r>    1.1100    1.0000 </r>
       <r>    1.2639    1.0000 </r>
       <r>    1.2761    1.0000 </r>
       <r>    1.3607    1.0000 </r>
       <r>    1.4182    1.0000 </r>
       <r>    1.4447    1.0000 </r>
       <r>    1.5867    1.0000 </r>
       <r>    1.7376    1.0000 </r>
       <r>    2.2304    1.0000 </r>
       <r>    2.3332    1.0000 </r>
       <r>    2.4300    1.0000 </r>
       <r>    2.5302    1.0000 </r>
       <r>    2.6047    1.0000 </r>
       <r>    2.7348    1.0000 </r>
       <r>    2.8093    1.0000 </r>
       <r>    2.9079    1.0000 </r>
       <r>    2.9485    1.0000 </r>
       <r>    2.9511    1.0000 </r>
       <r>    3.0637    1.0000 </r>
       <r>    3.1287    1.0000 </r>
       <r>    3.1399    1.0000 </r>
       <r>    3.5852    1.0000 </r>
       <r>    3.7910    1.0000 </r>
       <r>    6.5761    0.1344 </r>
       <r>    6.9894    0.0000 </r>
       <r>    7.4461    0.0000 </r>
       <r>    7.4569    0.0000 </r>
       <r>    7.6861    0.0000 </r>
       <r>    7.7591    0.0000 </r>
       <r>    7.9952    0.0000 </r>
       <r>    8.0202    0.0000 </r>
       <r>    8.1642    0.0000 </r>
       <r>    8.1992    0.0000 </r>
       <r>    8.2241    0.0000 </r>
       <r>    8.4902    0.0000 </r>
       <r>    9.0566    0.0000 </r>
       <r>    9.5101    0.0000 </r>
       <r>    9.7472    0.0000 </r>
       <r>   10.2751    0.0000 </r>
      </set>
      <set comment="kpoint 4">
       <r>  -52.0322    1.0000 </r>
       <r>  -52.0321    1.0000 </r>
       <r>  -52.0179    1.0000 </r>
       <r>  -50.5073    1.0000 </r>
       <r>  -28.9802    1.0000 </r>
       <r>  -28.9644    1.0000 </r>
       <r>  -28.8934    1.0000 </r>
       <r>  -28.8666    1.0000 </r>
       <r>  -28.3290    1.0000 </r>
       <r>  -28.3260    1.0000 </r>
       <r>  -28.3230    1.0000 </r>
       <r>  -28.3141    1.0000 </r>
       <r>  -28.3110    1.0000 </r>
       <r>  -28.3056    1.0000 </r>
       <r>  -28.2796    1.0000 </r>
       <r>  -28.2776    1.0000 </r>
       <r>  -28.2736    1.0000 </r>
       <r>  -26.7068    1.0000 </r>
       <r>  -26.7058    1.0000 </r>
       <r>  -26.7035    1.0000 </r>
       <r>  -13.2873    1.0000 </r>
       <r>  -13.1533    1.0000 </r>
       <r>  -12.8979    1.0000 </r>
       <r>  -12.6053    1.0000 </r>
       <r>  -12.5043    1.0000 </r>
       <r>  -12.3175    1.0000 </r>
       <r>  -12.2803    1.0000 </r>
       <r>  -12.2119    1.0000 </r>
       <r>  -12.1914    1.0000 </r>
       <r>  -12.1453    1.0000 </r>
       <r>  -12.0407    1.0000 </r>
       <r>  -12.0394    1.0000 </r>
       <r>  -11.0540    1.0000 </r>
       <r>  -11.0534    1.0000 </r>
       <r>  -10.9413    1.0000 </r>
       <r>  -10.9339    1.0000 </r>
       <r>  -10.9022    1.0000 </r>
       <r>  -10.8793    1.0000 </r>
       <r>  -10.8707    1.0000 </r>
       <r>  -10.7961    1.0000 </r>
       <r>  -10.7231    1.0000 </r>
       <r>  -10.6703    1.0000 </r>
       <r>  -10.5554    1.0000 </r>
       <r>  -10.5227    1.0000 </r>
       <r>   -0.4204    1.0000 </r>
       <r>   -0.2731    1.0000 </r>
       <r>   -0.2444    1.0000 </r>
       <r>   -0.1268    1.0000 </r>
       <r>    0.0804    1.0000 </r>
       <r>    0.2840    1.0000 </r>
       <r>    0.2845    1.0000 </r>
       <r>    0.3282    1.0000 </r>
       <r>    0.4706    1.0000 </r>
       <r>    0.4755    1.0000 </r>
       <r>    0.7834    1.0000 </r>
       <r>    0.9698    1.0000 </r>
       <r>    1.0628    1.0000 </r>
       <r>    1.0898    1.0000 </r>
       <r>    1.1949    1.0000 </r>
       <r>    1.2255    1.0000 </r>
       <r>    1.2951    1.0000 </r>
       <r>    1.3100    1.0000 </r>
       <r>    1.4168    1.0000 </r>
       <r>    1.8071    1.0000 </r>
       <r>    2.2471    1.0000 </r>
       <r>    2.3613    1.0000 </r>
       <r>    2.3688    1.0000 </r>
       <r>    2.7396    1.0000 </r>
       <r>    2.8391    1.0000 </r>
       <r>    2.8651    1.0000 </r>
       <r>    2.9476    1.0000 </r>
       <r>    2.9869    1.0000 </r>
       <r>    3.0256    1.0000 </r>
       <r>    3.0262    1.0000 </r>
       <r>    3.3022    1.0000 </r>
       <r>    3.3095    1.0000 </r>
       <r>    3.5851    1.0000 </r>
       <r>    3.7097    1.0000 </r>
       <r>    3.7506    1.0000 </r>
       <r>    3.8538    1.0000 </r>
       <r>    6.4414    0.7341 </r>
       <r>    6.5128    0.1593 </r>
       <r>    6.5134    0.1544 </r>
       <r>    6.9596    0.0000 </r>
       <r>    7.7233    0.0000 </r>
       <r>    7.7417    0.0000 </r>
       <r>    7.8461    0.0000 </r>
       <r>    7.8924    0.0000 </r>
       <r>    8.1985    0.0000 </r>
       <r>    8.5737    0.0000 </r>
       <r>    8.6067    0.0000 </r>
       <r>    8.6090    0.0000 </r>
       <r>    9.0551    0.0000 </r>
       <r>    9.1066    0.0000 </r>
       <r>    9.7551    0.0000 </r>
       <r>    9.7905    0.0000 </r>
      </set>
      <set comment="kpoint 5">
       <r>  -52.0321    1.0000 </r>
       <r>  -52.0321    1.0000 </r>
       <r>  -52.0180    1.0000 </r>
       <r>  -50.5073    1.0000 </r>
       <r>  -28.9783    1.0000 </r>
       <r>  -28.9668    1.0000 </r>
       <r>  -28.8918    1.0000 </r>
       <r>  -28.8725    1.0000 </r>
       <r>  -28.3272    1.0000 </r>
       <r>  -28.3244    1.0000 </r>
       <r>  -28.3237    1.0000 </r>
       <r>  -28.3129    1.0000 </r>
       <r>  -28.3094    1.0000 </r>
       <r>  -28.3077    1.0000 </r>
       <r>  -28.2786    1.0000 </r>
       <r>  -28.2764    1.0000 </r>
       <r>  -28.2740    1.0000 </r>
       <r>  -26.7067    1.0000 </r>
       <r>  -26.7050    1.0000 </r>
       <r>  -26.7038    1.0000 </r>
       <r>  -13.2967    1.0000 </r>
       <r>  -13.2211    1.0000 </r>
       <r>  -12.9896    1.0000 </r>
       <r>  -12.6764    1.0000 </r>
       <r>  -12.5098    1.0000 </r>
       <r>  -12.4414    1.0000 </r>
       <r>  -12.2780    1.0000 </r>
       <r>  -12.2370    1.0000 </r>
       <r>  -12.2118    1.0000 </r>
       <r>  -12.1918    1.0000 </r>
       <r>  -12.1497    1.0000 </r>
       <r>  -12.0827    1.0000 </r>
       <r>  -11.0311    1.0000 </r>
       <r>  -10.9193    1.0000 </r>
       <r>  -10.8981    1.0000 </r>
       <r>  -10.8668    1.0000 </r>
       <r>  -10.8168    1.0000 </r>
       <r>  -10.7850    1.0000 </r>
       <r>  -10.7379    1.0000 </r>
       <r>  -10.6742    1.0000 </r>
       <r>  -10.6530    1.0000 </r>
       <r>  -10.6120    1.0000 </r>
       <r>  -10.5084    1.0000 </r>
       <r>  -10.4740    1.0000 </r>
       <r>   -0.5594    1.0000 </r>
       <r>   -0.4146    1.0000 </r>
       <r>   -0.1645    1.0000 </r>
       <r>   -0.0918    1.0000 </r>
       <r>   -0.0536    1.0000 </r>
       <r>    0.2500    1.0000 </r>
       <r>    0.4700    1.0000 </r>
       <r>    0.4857    1.0000 </r>
       <r>    0.5723    1.0000 </r>
       <r>    0.6602    1.0000 </r>
       <r>    0.6930    1.0000 </r>
       <r>    0.9192    1.0000 </r>
       <r>    1.0247    1.0000 </r>
       <r>    1.1300    1.0000 </r>
       <r>    1.2085    1.0000 </r>
       <r>    1.2402    1.0000 </r>
       <r>    1.3127    1.0000 </r>
       <r>    1.3458    1.0000 </r>
       <r>    1.5218    1.0000 </r>
       <r>    1.7403    1.0000 </r>
       <r>    1.9926    1.0000 </r>
       <r>    2.0837    1.0000 </r>
       <r>    2.2086    1.0000 </r>
       <r>    2.4181    1.0000 </r>
       <r>    2.5535    1.0000 </r>
       <r>    2.6491    1.0000 </r>
       <r>    2.7211    1.0000 </r>
       <r>    2.8298    1.0000 </r>
       <r>    2.9173    1.0000 </r>
       <r>    3.0616    1.0000 </r>
       <r>    3.1464    1.0000 </r>
       <r>    3.1651    1.0000 </r>
       <r>    3.2361    1.0000 </r>
       <r>    3.3078    1.0000 </r>
       <r>    3.5805    1.0000 </r>
       <r>    3.7372    1.0000 </r>
       <r>    6.6396    0.0569 </r>
       <r>    6.9279    0.0000 </r>
       <r>    7.1806    0.0000 </r>
       <r>    7.2642    0.0000 </r>
       <r>    7.5575    0.0000 </r>
       <r>    7.8606    0.0000 </r>
       <r>    7.9807    0.0000 </r>
       <r>    8.0167    0.0000 </r>
       <r>    8.2181    0.0000 </r>
       <r>    8.2369    0.0000 </r>
       <r>    8.4037    0.0000 </r>
       <r>    8.4967    0.0000 </r>
       <r>    9.0355    0.0000 </r>
       <r>    9.2876    0.0000 </r>
       <r>    9.8110    0.0000 </r>
       <r>   10.2436    0.0000 </r>
      </set>
      <set comment="kpoint 6">
       <r>  -52.0321    1.0000 </r>
       <r>  -52.0321    1.0000 </r>
       <r>  -52.0180    1.0000 </r>
       <r>  -50.5073    1.0000 </r>
       <r>  -28.9747    1.0000 </r>
       <r>  -28.9704    1.0000 </r>
       <r>  -28.8882    1.0000 </r>
       <r>  -28.8793    1.0000 </r>
       <r>  -28.3259    1.0000 </r>
       <r>  -28.3243    1.0000 </r>
       <r>  -28.3196    1.0000 </r>
       <r>  -28.3125    1.0000 </r>
       <r>  -28.3104    1.0000 </r>
       <r>  -28.3096    1.0000 </r>
       <r>  -28.2780    1.0000 </r>
       <r>  -28.2767    1.0000 </r>
       <r>  -28.2739    1.0000 </r>
       <r>  -26.7063    1.0000 </r>
       <r>  -26.7050    1.0000 </r>
       <r>  -26.7038    1.0000 </r>
       <r>  -13.2884    1.0000 </r>
       <r>  -13.1180    1.0000 </r>
       <r>  -13.0755    1.0000 </r>
       <r>  -12.9849    1.0000 </r>
       <r>  -12.5128    1.0000 </r>
       <r>  -12.4066    1.0000 </r>
       <r>  -12.2812    1.0000 </r>
       <r>  -12.2665    1.0000 </r>
       <r>  -12.2259    1.0000 </r>
       <r>  -12.2020    1.0000 </r>
       <r>  -12.1325    1.0000 </r>
       <r>  -12.1185    1.0000 </r>
       <r>  -10.9660    1.0000 </r>
       <r>  -10.8969    1.0000 </r>
       <r>  -10.8927    1.0000 </r>
       <r>  -10.8645    1.0000 </r>
       <r>  -10.7495    1.0000 </r>
       <r>  -10.7021    1.0000 </r>
       <r>  -10.6640    1.0000 </r>
       <r>  -10.6372    1.0000 </r>
       <r>  -10.5984    1.0000 </r>
       <r>  -10.5262    1.0000 </r>
       <r>  -10.5097    1.0000 </r>
       <r>  -10.4463    1.0000 </r>
       <r>   -0.5713    1.0000 </r>
       <r>   -0.4685    1.0000 </r>
       <r>   -0.1931    1.0000 </r>
       <r>   -0.0682    1.0000 </r>
       <r>    0.1093    1.0000 </r>
       <r>    0.2576    1.0000 </r>
       <r>    0.3822    1.0000 </r>
       <r>    0.4210    1.0000 </r>
       <r>    0.4561    1.0000 </r>
       <r>    0.7307    1.0000 </r>
       <r>    0.7885    1.0000 </r>
       <r>    0.8901    1.0000 </r>
       <r>    1.0617    1.0000 </r>
       <r>    1.1053    1.0000 </r>
       <r>    1.2157    1.0000 </r>
       <r>    1.2666    1.0000 </r>
       <r>    1.2751    1.0000 </r>
       <r>    1.3357    1.0000 </r>
       <r>    1.6044    1.0000 </r>
       <r>    1.6485    1.0000 </r>
       <r>    1.9526    1.0000 </r>
       <r>    2.1002    1.0000 </r>
       <r>    2.1795    1.0000 </r>
       <r>    2.2671    1.0000 </r>
       <r>    2.5105    1.0000 </r>
       <r>    2.5551    1.0000 </r>
       <r>    2.6656    1.0000 </r>
       <r>    2.7044    1.0000 </r>
       <r>    2.8053    1.0000 </r>
       <r>    2.8531    1.0000 </r>
       <r>    2.8958    1.0000 </r>
       <r>    2.9545    1.0000 </r>
       <r>    3.1501    1.0000 </r>
       <r>    3.3498    1.0000 </r>
       <r>    3.3699    1.0000 </r>
       <r>    3.5822    1.0000 </r>
       <r>    6.9292   -0.0437 </r>
       <r>    7.2236    0.0000 </r>
       <r>    7.4079    0.0000 </r>
       <r>    7.5356    0.0000 </r>
       <r>    7.7155    0.0000 </r>
       <r>    7.8453    0.0000 </r>
       <r>    7.9049    0.0000 </r>
       <r>    7.9445    0.0000 </r>
       <r>    8.1666    0.0000 </r>
       <r>    8.1768    0.0000 </r>
       <r>    8.1881    0.0000 </r>
       <r>    8.3710    0.0000 </r>
       <r>    9.1332    0.0000 </r>
       <r>    9.5243    0.0000 </r>
       <r>    9.7294    0.0000 </r>
       <r>   10.1039    0.0000 </r>
      </set>
      <set comment="kpoint 7">
       <r>  -52.0321    1.0000 </r>
       <r>  -52.0321    1.0000 </r>
       <r>  -52.0180    1.0000 </r>
       <r>  -50.5073    1.0000 </r>
       <r>  -28.9776    1.0000 </r>
       <r>  -28.9674    1.0000 </r>
       <r>  -28.8918    1.0000 </r>
       <r>  -28.8727    1.0000 </r>
       <r>  -28.3272    1.0000 </r>
       <r>  -28.3237    1.0000 </r>
       <r>  -28.3235    1.0000 </r>
       <r>  -28.3125    1.0000 </r>
       <r>  -28.3100    1.0000 </r>
       <r>  -28.3081    1.0000 </r>
       <r>  -28.2787    1.0000 </r>
       <r>  -28.2762    1.0000 </r>
       <r>  -28.2743    1.0000 </r>
       <r>  -26.7067    1.0000 </r>
       <r>  -26.7050    1.0000 </r>
       <r>  -26.7038    1.0000 </r>
       <r>  -13.2659    1.0000 </r>
       <r>  -13.1740    1.0000 </r>
       <r>  -13.0952    1.0000 </r>
       <r>  -12.6749    1.0000 </r>
       <r>  -12.4898    1.0000 </r>
       <r>  -12.4782    1.0000 </r>
       <r>  -12.2505    1.0000 </r>
       <r>  -12.2340    1.0000 </r>
       <r>  -12.2045    1.0000 </r>
       <r>  -12.2026    1.0000 </r>
       <r>  -12.1472    1.0000 </r>
       <r>  -12.0551    1.0000 </r>
       <r>  -11.0636    1.0000 </r>
       <r>  -10.9181    1.0000 </r>
       <r>  -10.8774    1.0000 </r>
       <r>  -10.8652    1.0000 </r>
       <r>  -10.8005    1.0000 </r>
       <r>  -10.7813    1.0000 </r>
       <r>  -10.7268    1.0000 </r>
       <r>  -10.6898    1.0000 </r>
       <r>  -10.6568    1.0000 </r>
       <r>  -10.6497    1.0000 </r>
       <r>  -10.4813    1.0000 </r>
       <r>  -10.4798    1.0000 </r>
       <r>   -0.5541    1.0000 </r>
       <r>   -0.4538    1.0000 </r>
       <r>   -0.1087    1.0000 </r>
       <r>   -0.0858    1.0000 </r>
       <r>    0.0380    1.0000 </r>
       <r>    0.2852    1.0000 </r>
       <r>    0.3209    1.0000 </r>
       <r>    0.5582    1.0000 </r>
       <r>    0.6199    1.0000 </r>
       <r>    0.6474    1.0000 </r>
       <r>    0.6747    1.0000 </r>
       <r>    0.8322    1.0000 </r>
       <r>    0.8650    1.0000 </r>
       <r>    1.0813    1.0000 </r>
       <r>    1.2968    1.0000 </r>
       <r>    1.3128    1.0000 </r>
       <r>    1.3330    1.0000 </r>
       <r>    1.3344    1.0000 </r>
       <r>    1.4967    1.0000 </r>
       <r>    1.6042    1.0000 </r>
       <r>    2.1365    1.0000 </r>
       <r>    2.2310    1.0000 </r>
       <r>    2.2812    1.0000 </r>
       <r>    2.4258    1.0000 </r>
       <r>    2.4840    1.0000 </r>
       <r>    2.5512    1.0000 </r>
       <r>    2.7248    1.0000 </r>
       <r>    2.7604    1.0000 </r>
       <r>    2.7702    1.0000 </r>
       <r>    3.1451    1.0000 </r>
       <r>    3.1549    1.0000 </r>
       <r>    3.2890    1.0000 </r>
       <r>    3.3307    1.0000 </r>
       <r>    3.3667    1.0000 </r>
       <r>    3.4814    1.0000 </r>
       <r>    3.6753    1.0000 </r>
       <r>    6.8002   -0.0550 </r>
       <r>    6.9339    0.0000 </r>
       <r>    7.1814    0.0000 </r>
       <r>    7.2436    0.0000 </r>
       <r>    7.2549    0.0000 </r>
       <r>    7.9394    0.0000 </r>
       <r>    7.9941    0.0000 </r>
       <r>    8.1555    0.0000 </r>
       <r>    8.1574    0.0000 </r>
       <r>    8.2116    0.0000 </r>
       <r>    8.4352    0.0000 </r>
       <r>    8.4769    0.0000 </r>
       <r>    9.0298    0.0000 </r>
       <r>    9.4341    0.0000 </r>
       <r>    9.5569    0.0000 </r>
       <r>   10.2433    0.0000 </r>
      </set>
      <set comment="kpoint 8">
       <r>  -52.0321    1.0000 </r>
       <r>  -52.0321    1.0000 </r>
       <r>  -52.0180    1.0000 </r>
       <r>  -50.5073    1.0000 </r>
       <r>  -28.9787    1.0000 </r>
       <r>  -28.9668    1.0000 </r>
       <r>  -28.8916    1.0000 </r>
       <r>  -28.8733    1.0000 </r>
       <r>  -28.3304    1.0000 </r>
       <r>  -28.3253    1.0000 </r>
       <r>  -28.3188    1.0000 </r>
       <r>  -28.3138    1.0000 </r>
       <r>  -28.3095    1.0000 </r>
       <r>  -28.3070    1.0000 </r>
       <r>  -28.2787    1.0000 </r>
       <r>  -28.2757    1.0000 </r>
       <r>  -28.2739    1.0000 </r>
       <r>  -26.7069    1.0000 </r>
       <r>  -26.7050    1.0000 </r>
       <r>  -26.7034    1.0000 </r>
       <r>  -13.4540    1.0000 </r>
       <r>  -13.0976    1.0000 </r>
       <r>  -12.7967    1.0000 </r>
       <r>  -12.7518    1.0000 </r>
       <r>  -12.6013    1.0000 </r>
       <r>  -12.4358    1.0000 </r>
       <r>  -12.4090    1.0000 </r>
       <r>  -12.2830    1.0000 </r>
       <r>  -12.2126    1.0000 </r>
       <r>  -12.1923    1.0000 </r>
       <r>  -12.1649    1.0000 </r>
       <r>  -12.0197    1.0000 </r>
       <r>  -10.9320    1.0000 </r>
       <r>  -10.9161    1.0000 </r>
       <r>  -10.8869    1.0000 </r>
       <r>  -10.8670    1.0000 </r>
       <r>  -10.8520    1.0000 </r>
       <r>  -10.8326    1.0000 </r>
       <r>  -10.8318    1.0000 </r>
       <r>  -10.6143    1.0000 </r>
       <r>  -10.6003    1.0000 </r>
       <r>  -10.5286    1.0000 </r>
       <r>  -10.5084    1.0000 </r>
       <r>  -10.3937    1.0000 </r>
       <r>   -0.6398    1.0000 </r>
       <r>   -0.5026    1.0000 </r>
       <r>   -0.3190    1.0000 </r>
       <r>   -0.1393    1.0000 </r>
       <r>   -0.0150    1.0000 </r>
       <r>    0.4154    1.0000 </r>
       <r>    0.5422    1.0000 </r>
       <r>    0.5730    1.0000 </r>
       <r>    0.6795    1.0000 </r>
       <r>    0.6988    1.0000 </r>
       <r>    0.7782    1.0000 </r>
       <r>    1.0494    1.0000 </r>
       <r>    1.0526    1.0000 </r>
       <r>    1.2278    1.0000 </r>
       <r>    1.2400    1.0000 </r>
       <r>    1.2907    1.0000 </r>
       <r>    1.3700    1.0000 </r>
       <r>    1.3746    1.0000 </r>
       <r>    1.5241    1.0000 </r>
       <r>    1.5324    1.0000 </r>
       <r>    1.6445    1.0000 </r>
       <r>    1.8088    1.0000 </r>
       <r>    2.0684    1.0000 </r>
       <r>    2.3249    1.0000 </r>
       <r>    2.3377    1.0000 </r>
       <r>    2.4928    1.0000 </r>
       <r>    2.4993    1.0000 </r>
       <r>    3.0083    1.0000 </r>
       <r>    3.0378    1.0000 </r>
       <r>    3.1270    1.0000 </r>
       <r>    3.1449    1.0000 </r>
       <r>    3.2117    1.0000 </r>
       <r>    3.2460    1.0000 </r>
       <r>    3.3035    1.0000 </r>
       <r>    3.5531    1.0000 </r>
       <r>    3.8621    1.0000 </r>
       <r>    6.3626    0.8056 </r>
       <r>    7.2034    0.0000 </r>
       <r>    7.2743    0.0000 </r>
       <r>    7.2780    0.0000 </r>
       <r>    7.9302    0.0000 </r>
       <r>    7.9362    0.0000 </r>
       <r>    7.9392    0.0000 </r>
       <r>    7.9705    0.0000 </r>
       <r>    8.0094    0.0000 </r>
       <r>    8.1897    0.0000 </r>
       <r>    8.1903    0.0000 </r>
       <r>    8.5622    0.0000 </r>
       <r>    8.7871    0.0000 </r>
       <r>    9.5762    0.0000 </r>
       <r>   10.1513    0.0000 </r>
       <r>   10.2180    0.0000 </r>
      </set>
      <set comment="kpoint 9">
       <r>  -52.0321    1.0000 </r>
       <r>  -52.0321    1.0000 </r>
       <r>  -52.0180    1.0000 </r>
       <r>  -50.5073    1.0000 </r>
       <r>  -28.9762    1.0000 </r>
       <r>  -28.9690    1.0000 </r>
       <r>  -28.8886    1.0000 </r>
       <r>  -28.8786    1.0000 </r>
       <r>  -28.3260    1.0000 </r>
       <r>  -28.3255    1.0000 </r>
       <r>  -28.3187    1.0000 </r>
       <r>  -28.3125    1.0000 </r>
       <r>  -28.3110    1.0000 </r>
       <r>  -28.3090    1.0000 </r>
       <r>  -28.2779    1.0000 </r>
       <r>  -28.2764    1.0000 </r>
       <r>  -28.2738    1.0000 </r>
       <r>  -26.7063    1.0000 </r>
       <r>  -26.7049    1.0000 </r>
       <r>  -26.7039    1.0000 </r>
       <r>  -13.3803    1.0000 </r>
       <r>  -13.0616    1.0000 </r>
       <r>  -13.0459    1.0000 </r>
       <r>  -12.8972    1.0000 </r>
       <r>  -12.5085    1.0000 </r>
       <r>  -12.4432    1.0000 </r>
       <r>  -12.3886    1.0000 </r>
       <r>  -12.2763    1.0000 </r>
       <r>  -12.2410    1.0000 </r>
       <r>  -12.1635    1.0000 </r>
       <r>  -12.1340    1.0000 </r>
       <r>  -12.0708    1.0000 </r>
       <r>  -10.9457    1.0000 </r>
       <r>  -10.9295    1.0000 </r>
       <r>  -10.8972    1.0000 </r>
       <r>  -10.8501    1.0000 </r>
       <r>  -10.7819    1.0000 </r>
       <r>  -10.7440    1.0000 </r>
       <r>  -10.7022    1.0000 </r>
       <r>  -10.5988    1.0000 </r>
       <r>  -10.5768    1.0000 </r>
       <r>  -10.5088    1.0000 </r>
       <r>  -10.5050    1.0000 </r>
       <r>  -10.4126    1.0000 </r>
       <r>   -0.5913    1.0000 </r>
       <r>   -0.3879    1.0000 </r>
       <r>   -0.3732    1.0000 </r>
       <r>   -0.0995    1.0000 </r>
       <r>    0.0407    1.0000 </r>
       <r>    0.2137    1.0000 </r>
       <r>    0.4386    1.0000 </r>
       <r>    0.4436    1.0000 </r>
       <r>    0.6780    1.0000 </r>
       <r>    0.7493    1.0000 </r>
       <r>    0.9521    1.0000 </r>
       <r>    1.0181    1.0000 </r>
       <r>    1.0508    1.0000 </r>
       <r>    1.0958    1.0000 </r>
       <r>    1.2283    1.0000 </r>
       <r>    1.2434    1.0000 </r>
       <r>    1.3136    1.0000 </r>
       <r>    1.3589    1.0000 </r>
       <r>    1.4299    1.0000 </r>
       <r>    1.4353    1.0000 </r>
       <r>    1.8413    1.0000 </r>
       <r>    1.9405    1.0000 </r>
       <r>    2.3146    1.0000 </r>
       <r>    2.3445    1.0000 </r>
       <r>    2.4522    1.0000 </r>
       <r>    2.5537    1.0000 </r>
       <r>    2.6142    1.0000 </r>
       <r>    2.7093    1.0000 </r>
       <r>    2.8444    1.0000 </r>
       <r>    2.9236    1.0000 </r>
       <r>    2.9351    1.0000 </r>
       <r>    2.9430    1.0000 </r>
       <r>    3.0932    1.0000 </r>
       <r>    3.3595    1.0000 </r>
       <r>    3.3672    1.0000 </r>
       <r>    3.7504    1.0000 </r>
       <r>    6.6342    0.0635 </r>
       <r>    7.3774    0.0000 </r>
       <r>    7.3809    0.0000 </r>
       <r>    7.7463    0.0000 </r>
       <r>    7.8526    0.0000 </r>
       <r>    7.8565    0.0000 </r>
       <r>    7.8752    0.0000 </r>
       <r>    7.9127    0.0000 </r>
       <r>    7.9287    0.0000 </r>
       <r>    8.1534    0.0000 </r>
       <r>    8.1808    0.0000 </r>
       <r>    8.4192    0.0000 </r>
       <r>    9.0936    0.0000 </r>
       <r>    9.4637    0.0000 </r>
       <r>   10.0198    0.0000 </r>
       <r>   10.1026    0.0000 </r>
      </set>
      <set comment="kpoint 10">
       <r>  -52.0322    1.0000 </r>
       <r>  -52.0321    1.0000 </r>
       <r>  -52.0179    1.0000 </r>
       <r>  -50.5073    1.0000 </r>
       <r>  -28.9814    1.0000 </r>
       <r>  -28.9626    1.0000 </r>
       <r>  -28.8936    1.0000 </r>
       <r>  -28.8635    1.0000 </r>
       <r>  -28.3284    1.0000 </r>
       <r>  -28.3284    1.0000 </r>
       <r>  -28.3220    1.0000 </r>
       <r>  -28.3138    1.0000 </r>
       <r>  -28.3138    1.0000 </r>
       <r>  -28.3040    1.0000 </r>
       <r>  -28.2803    1.0000 </r>
       <r>  -28.2803    1.0000 </r>
       <r>  -28.2725    1.0000 </r>
       <r>  -26.7067    1.0000 </r>
       <r>  -26.7067    1.0000 </r>
       <r>  -26.7033    1.0000 </r>
       <r>  -13.2838    1.0000 </r>
       <r>  -13.0678    1.0000 </r>
       <r>  -12.7562    1.0000 </r>
       <r>  -12.6043    1.0000 </r>
       <r>  -12.6043    1.0000 </r>
       <r>  -12.2354    1.0000 </r>
       <r>  -12.2354    1.0000 </r>
       <r>  -12.1809    1.0000 </r>
       <r>  -12.1809    1.0000 </r>
       <r>  -12.0580    1.0000 </r>
       <r>  -11.9760    1.0000 </r>
       <r>  -11.9760    1.0000 </r>
       <r>  -11.1249    1.0000 </r>
       <r>  -11.1249    1.0000 </r>
       <r>  -11.0583    1.0000 </r>
       <r>  -10.9624    1.0000 </r>
       <r>  -10.9624    1.0000 </r>
       <r>  -10.8969    1.0000 </r>
       <r>  -10.8630    1.0000 </r>
       <r>  -10.8630    1.0000 </r>
       <r>  -10.8175    1.0000 </r>
       <r>  -10.8175    1.0000 </r>
       <r>  -10.5896    1.0000 </r>
       <r>  -10.5761    1.0000 </r>
       <r>   -0.4015    1.0000 </r>
       <r>   -0.3059    1.0000 </r>
       <r>   -0.3059    1.0000 </r>
       <r>   -0.1408    1.0000 </r>
       <r>    0.1953    1.0000 </r>
       <r>    0.1953    1.0000 </r>
       <r>    0.2979    1.0000 </r>
       <r>    0.5036    1.0000 </r>
       <r>    0.6113    1.0000 </r>
       <r>    0.6113    1.0000 </r>
       <r>    0.7821    1.0000 </r>
       <r>    0.8481    1.0000 </r>
       <r>    0.8481    1.0000 </r>
       <r>    1.0720    1.0000 </r>
       <r>    1.0720    1.0000 </r>
       <r>    1.2870    1.0000 </r>
       <r>    1.3562    1.0000 </r>
       <r>    1.3562    1.0000 </r>
       <r>    1.5318    1.0000 </r>
       <r>    1.5318    1.0000 </r>
       <r>    1.8358    1.0000 </r>
       <r>    2.7127    1.0000 </r>
       <r>    2.7127    1.0000 </r>
       <r>    2.8464    1.0000 </r>
       <r>    3.0073    1.0000 </r>
       <r>    3.0073    1.0000 </r>
       <r>    3.2021    1.0000 </r>
       <r>    3.2021    1.0000 </r>
       <r>    3.2312    1.0000 </r>
       <r>    3.3937    1.0000 </r>
       <r>    3.5185    1.0000 </r>
       <r>    3.5185    1.0000 </r>
       <r>    3.5531    1.0000 </r>
       <r>    3.8999    1.0000 </r>
       <r>    3.8999    1.0000 </r>
       <r>    3.9648    1.0000 </r>
       <r>    6.1778    1.0173 </r>
       <r>    6.2034    1.0446 </r>
       <r>    6.2034    0.9810 </r>
       <r>    7.2159    0.0000 </r>
       <r>    7.2781    0.0000 </r>
       <r>    7.2781    0.0000 </r>
       <r>    7.9819    0.0000 </r>
       <r>    8.0189    0.0000 </r>
       <r>    8.0189    0.0000 </r>
       <r>    8.7502    0.0000 </r>
       <r>    8.7614    0.0000 </r>
       <r>    8.7614    0.0000 </r>
       <r>    8.7819    0.0000 </r>
       <r>    8.7819    0.0000 </r>
       <r>    9.4494    0.0000 </r>
       <r>    9.4494    0.0000 </r>
      </set>
      <set comment="kpoint 11">
       <r>  -52.0322    1.0000 </r>
       <r>  -52.0321    1.0000 </r>
       <r>  -52.0179    1.0000 </r>
       <r>  -50.5073    1.0000 </r>
       <r>  -28.9809    1.0000 </r>
       <r>  -28.9638    1.0000 </r>
       <r>  -28.8934    1.0000 </r>
       <r>  -28.8665    1.0000 </r>
       <r>  -28.3293    1.0000 </r>
       <r>  -28.3266    1.0000 </r>
       <r>  -28.3237    1.0000 </r>
       <r>  -28.3137    1.0000 </r>
       <r>  -28.3098    1.0000 </r>
       <r>  -28.3055    1.0000 </r>
       <r>  -28.2797    1.0000 </r>
       <r>  -28.2780    1.0000 </r>
       <r>  -28.2733    1.0000 </r>
       <r>  -26.7068    1.0000 </r>
       <r>  -26.7058    1.0000 </r>
       <r>  -26.7035    1.0000 </r>
       <r>  -13.3135    1.0000 </r>
       <r>  -13.1531    1.0000 </r>
       <r>  -12.8525    1.0000 </r>
       <r>  -12.6110    1.0000 </r>
       <r>  -12.4934    1.0000 </r>
       <r>  -12.2890    1.0000 </r>
       <r>  -12.2250    1.0000 </r>
       <r>  -12.1911    1.0000 </r>
       <r>  -12.1655    1.0000 </r>
       <r>  -12.1647    1.0000 </r>
       <r>  -12.1539    1.0000 </r>
       <r>  -12.1026    1.0000 </r>
       <r>  -11.0526    1.0000 </r>
       <r>  -11.0266    1.0000 </r>
       <r>  -10.9246    1.0000 </r>
       <r>  -10.9118    1.0000 </r>
       <r>  -10.8939    1.0000 </r>
       <r>  -10.8757    1.0000 </r>
       <r>  -10.8681    1.0000 </r>
       <r>  -10.7546    1.0000 </r>
       <r>  -10.7083    1.0000 </r>
       <r>  -10.6607    1.0000 </r>
       <r>  -10.5941    1.0000 </r>
       <r>  -10.5922    1.0000 </r>
       <r>   -0.5492    1.0000 </r>
       <r>   -0.3299    1.0000 </r>
       <r>   -0.2370    1.0000 </r>
       <r>   -0.1052    1.0000 </r>
       <r>    0.0490    1.0000 </r>
       <r>    0.3209    1.0000 </r>
       <r>    0.3565    1.0000 </r>
       <r>    0.5685    1.0000 </r>
       <r>    0.5992    1.0000 </r>
       <r>    0.7294    1.0000 </r>
       <r>    0.7407    1.0000 </r>
       <r>    0.7888    1.0000 </r>
       <r>    0.9248    1.0000 </r>
       <r>    1.0113    1.0000 </r>
       <r>    1.0555    1.0000 </r>
       <r>    1.2900    1.0000 </r>
       <r>    1.3080    1.0000 </r>
       <r>    1.3470    1.0000 </r>
       <r>    1.3868    1.0000 </r>
       <r>    1.8153    1.0000 </r>
       <r>    2.2670    1.0000 </r>
       <r>    2.4121    1.0000 </r>
       <r>    2.4144    1.0000 </r>
       <r>    2.5622    1.0000 </r>
       <r>    2.6128    1.0000 </r>
       <r>    2.7060    1.0000 </r>
       <r>    2.9313    1.0000 </r>
       <r>    3.0437    1.0000 </r>
       <r>    3.2106    1.0000 </r>
       <r>    3.2344    1.0000 </r>
       <r>    3.4086    1.0000 </r>
       <r>    3.4321    1.0000 </r>
       <r>    3.4616    1.0000 </r>
       <r>    3.5535    1.0000 </r>
       <r>    3.5902    1.0000 </r>
       <r>    3.9482    1.0000 </r>
       <r>    6.1368    1.1903 </r>
       <r>    6.8307   -0.0634 </r>
       <r>    6.8339   -0.0529 </r>
       <r>    7.1353    0.0000 </r>
       <r>    7.2656    0.0000 </r>
       <r>    7.5443    0.0000 </r>
       <r>    7.7449    0.0000 </r>
       <r>    8.2133    0.0000 </r>
       <r>    8.2451    0.0000 </r>
       <r>    8.5220    0.0000 </r>
       <r>    8.5229    0.0000 </r>
       <r>    8.6715    0.0000 </r>
       <r>    8.7442    0.0000 </r>
       <r>    9.2214    0.0000 </r>
       <r>    9.7483    0.0000 </r>
       <r>    9.9169    0.0000 </r>
      </set>
      <set comment="kpoint 12">
       <r>  -52.0321    1.0000 </r>
       <r>  -52.0321    1.0000 </r>
       <r>  -52.0180    1.0000 </r>
       <r>  -50.5073    1.0000 </r>
       <r>  -28.9782    1.0000 </r>
       <r>  -28.9671    1.0000 </r>
       <r>  -28.8917    1.0000 </r>
       <r>  -28.8734    1.0000 </r>
       <r>  -28.3304    1.0000 </r>
       <r>  -28.3247    1.0000 </r>
       <r>  -28.3202    1.0000 </r>
       <r>  -28.3139    1.0000 </r>
       <r>  -28.3080    1.0000 </r>
       <r>  -28.3071    1.0000 </r>
       <r>  -28.2787    1.0000 </r>
       <r>  -28.2762    1.0000 </r>
       <r>  -28.2739    1.0000 </r>
       <r>  -26.7069    1.0000 </r>
       <r>  -26.7050    1.0000 </r>
       <r>  -26.7034    1.0000 </r>
       <r>  -13.4040    1.0000 </r>
       <r>  -13.0706    1.0000 </r>
       <r>  -13.0344    1.0000 </r>
       <r>  -12.6559    1.0000 </r>
       <r>  -12.6070    1.0000 </r>
       <r>  -12.3479    1.0000 </r>
       <r>  -12.3454    1.0000 </r>
       <r>  -12.3012    1.0000 </r>
       <r>  -12.2336    1.0000 </r>
       <r>  -12.1880    1.0000 </r>
       <r>  -12.1361    1.0000 </r>
       <r>  -12.1012    1.0000 </r>
       <r>  -10.9817    1.0000 </r>
       <r>  -10.9398    1.0000 </r>
       <r>  -10.8788    1.0000 </r>
       <r>  -10.8739    1.0000 </r>
       <r>  -10.8659    1.0000 </r>
       <r>  -10.7172    1.0000 </r>
       <r>  -10.6976    1.0000 </r>
       <r>  -10.6449    1.0000 </r>
       <r>  -10.5986    1.0000 </r>
       <r>  -10.5911    1.0000 </r>
       <r>  -10.5261    1.0000 </r>
       <r>  -10.4444    1.0000 </r>
       <r>   -0.6290    1.0000 </r>
       <r>   -0.3930    1.0000 </r>
       <r>   -0.3188    1.0000 </r>
       <r>   -0.1269    1.0000 </r>
       <r>    0.1095    1.0000 </r>
       <r>    0.2403    1.0000 </r>
       <r>    0.3568    1.0000 </r>
       <r>    0.5853    1.0000 </r>
       <r>    0.6174    1.0000 </r>
       <r>    0.6279    1.0000 </r>
       <r>    0.7859    1.0000 </r>
       <r>    1.0132    1.0000 </r>
       <r>    1.0452    1.0000 </r>
       <r>    1.1891    1.0000 </r>
       <r>    1.2146    1.0000 </r>
       <r>    1.2515    1.0000 </r>
       <r>    1.3442    1.0000 </r>
       <r>    1.4392    1.0000 </r>
       <r>    1.6022    1.0000 </r>
       <r>    1.7760    1.0000 </r>
       <r>    1.8089    1.0000 </r>
       <r>    1.8218    1.0000 </r>
       <r>    2.1182    1.0000 </r>
       <r>    2.1944    1.0000 </r>
       <r>    2.4372    1.0000 </r>
       <r>    2.7067    1.0000 </r>
       <r>    2.7387    1.0000 </r>
       <r>    2.8796    1.0000 </r>
       <r>    2.8845    1.0000 </r>
       <r>    2.9683    1.0000 </r>
       <r>    3.0099    1.0000 </r>
       <r>    3.1723    1.0000 </r>
       <r>    3.2259    1.0000 </r>
       <r>    3.2571    1.0000 </r>
       <r>    3.4415    1.0000 </r>
       <r>    3.8757    1.0000 </r>
       <r>    6.3284    0.6961 </r>
       <r>    7.3547    0.0000 </r>
       <r>    7.4526    0.0000 </r>
       <r>    7.5467    0.0000 </r>
       <r>    7.6822    0.0000 </r>
       <r>    7.6989    0.0000 </r>
       <r>    7.8995    0.0000 </r>
       <r>    7.9808    0.0000 </r>
       <r>    8.0034    0.0000 </r>
       <r>    8.2190    0.0000 </r>
       <r>    8.2229    0.0000 </r>
       <r>    8.5996    0.0000 </r>
       <r>    8.7880    0.0000 </r>
       <r>    9.6420    0.0000 </r>
       <r>   10.1104    0.0000 </r>
       <r>   10.1957    0.0000 </r>
      </set>
      <set comment="kpoint 13">
       <r>  -52.0321    1.0000 </r>
       <r>  -52.0321    1.0000 </r>
       <r>  -52.0180    1.0000 </r>
       <r>  -50.5073    1.0000 </r>
       <r>  -28.9775    1.0000 </r>
       <r>  -28.9678    1.0000 </r>
       <r>  -28.8915    1.0000 </r>
       <r>  -28.8737    1.0000 </r>
       <r>  -28.3302    1.0000 </r>
       <r>  -28.3239    1.0000 </r>
       <r>  -28.3189    1.0000 </r>
       <r>  -28.3141    1.0000 </r>
       <r>  -28.3094    1.0000 </r>
       <r>  -28.3079    1.0000 </r>
       <r>  -28.2786    1.0000 </r>
       <r>  -28.2758    1.0000 </r>
       <r>  -28.2741    1.0000 </r>
       <r>  -26.7069    1.0000 </r>
       <r>  -26.7050    1.0000 </r>
       <r>  -26.7034    1.0000 </r>
       <r>  -13.3927    1.0000 </r>
       <r>  -13.1451    1.0000 </r>
       <r>  -12.9218    1.0000 </r>
       <r>  -12.7088    1.0000 </r>
       <r>  -12.6042    1.0000 </r>
       <r>  -12.4222    1.0000 </r>
       <r>  -12.3930    1.0000 </r>
       <r>  -12.2312    1.0000 </r>
       <r>  -12.2234    1.0000 </r>
       <r>  -12.1713    1.0000 </r>
       <r>  -12.1263    1.0000 </r>
       <r>  -12.0715    1.0000 </r>
       <r>  -10.9816    1.0000 </r>
       <r>  -10.9452    1.0000 </r>
       <r>  -10.8684    1.0000 </r>
       <r>  -10.8453    1.0000 </r>
       <r>  -10.8164    1.0000 </r>
       <r>  -10.8051    1.0000 </r>
       <r>  -10.7828    1.0000 </r>
       <r>  -10.6396    1.0000 </r>
       <r>  -10.6197    1.0000 </r>
       <r>  -10.5464    1.0000 </r>
       <r>  -10.5112    1.0000 </r>
       <r>  -10.4116    1.0000 </r>
       <r>   -0.6214    1.0000 </r>
       <r>   -0.3953    1.0000 </r>
       <r>   -0.2835    1.0000 </r>
       <r>   -0.0796    1.0000 </r>
       <r>   -0.0174    1.0000 </r>
       <r>    0.3577    1.0000 </r>
       <r>    0.4113    1.0000 </r>
       <r>    0.4559    1.0000 </r>
       <r>    0.6201    1.0000 </r>
       <r>    0.6285    1.0000 </r>
       <r>    0.7956    1.0000 </r>
       <r>    0.9899    1.0000 </r>
       <r>    1.1401    1.0000 </r>
       <r>    1.1511    1.0000 </r>
       <r>    1.2359    1.0000 </r>
       <r>    1.2886    1.0000 </r>
       <r>    1.3045    1.0000 </r>
       <r>    1.3874    1.0000 </r>
       <r>    1.4060    1.0000 </r>
       <r>    1.5752    1.0000 </r>
       <r>    1.6570    1.0000 </r>
       <r>    2.1978    1.0000 </r>
       <r>    2.3127    1.0000 </r>
       <r>    2.3692    1.0000 </r>
       <r>    2.4441    1.0000 </r>
       <r>    2.5548    1.0000 </r>
       <r>    2.6224    1.0000 </r>
       <r>    2.7851    1.0000 </r>
       <r>    2.9876    1.0000 </r>
       <r>    3.0000    1.0000 </r>
       <r>    3.0563    1.0000 </r>
       <r>    3.1003    1.0000 </r>
       <r>    3.1928    1.0000 </r>
       <r>    3.2882    1.0000 </r>
       <r>    3.6177    1.0000 </r>
       <r>    3.7749    1.0000 </r>
       <r>    6.6352    0.0283 </r>
       <r>    6.9070    0.0000 </r>
       <r>    7.2904    0.0000 </r>
       <r>    7.3025    0.0000 </r>
       <r>    7.8497    0.0000 </r>
       <r>    7.8912    0.0000 </r>
       <r>    7.9736    0.0000 </r>
       <r>    7.9989    0.0000 </r>
       <r>    8.1831    0.0000 </r>
       <r>    8.2076    0.0000 </r>
       <r>    8.2445    0.0000 </r>
       <r>    8.4351    0.0000 </r>
       <r>    9.0525    0.0000 </r>
       <r>    9.4816    0.0000 </r>
       <r>    9.7599    0.0000 </r>
       <r>   10.2809    0.0000 </r>
      </set>
      <set comment="kpoint 14">
       <r>  -52.0322    1.0000 </r>
       <r>  -52.0321    1.0000 </r>
       <r>  -52.0179    1.0000 </r>
       <r>  -50.5073    1.0000 </r>
       <r>  -28.9813    1.0000 </r>
       <r>  -28.9636    1.0000 </r>
       <r>  -28.8932    1.0000 </r>
       <r>  -28.8664    1.0000 </r>
       <r>  -28.3291    1.0000 </r>
       <r>  -28.3265    1.0000 </r>
       <r>  -28.3238    1.0000 </r>
       <r>  -28.3140    1.0000 </r>
       <r>  -28.3102    1.0000 </r>
       <r>  -28.3057    1.0000 </r>
       <r>  -28.2796    1.0000 </r>
       <r>  -28.2779    1.0000 </r>
       <r>  -28.2729    1.0000 </r>
       <r>  -26.7068    1.0000 </r>
       <r>  -26.7058    1.0000 </r>
       <r>  -26.7035    1.0000 </r>
       <r>  -13.3221    1.0000 </r>
       <r>  -13.1965    1.0000 </r>
       <r>  -12.7052    1.0000 </r>
       <r>  -12.6073    1.0000 </r>
       <r>  -12.4864    1.0000 </r>
       <r>  -12.3893    1.0000 </r>
       <r>  -12.2930    1.0000 </r>
       <r>  -12.2258    1.0000 </r>
       <r>  -12.1971    1.0000 </r>
       <r>  -12.1520    1.0000 </r>
       <r>  -12.1216    1.0000 </r>
       <r>  -12.0262    1.0000 </r>
       <r>  -11.0847    1.0000 </r>
       <r>  -10.9838    1.0000 </r>
       <r>  -10.9216    1.0000 </r>
       <r>  -10.9102    1.0000 </r>
       <r>  -10.8976    1.0000 </r>
       <r>  -10.8496    1.0000 </r>
       <r>  -10.8485    1.0000 </r>
       <r>  -10.7631    1.0000 </r>
       <r>  -10.7451    1.0000 </r>
       <r>  -10.6932    1.0000 </r>
       <r>  -10.6101    1.0000 </r>
       <r>  -10.5487    1.0000 </r>
       <r>   -0.4828    1.0000 </r>
       <r>   -0.2736    1.0000 </r>
       <r>   -0.2568    1.0000 </r>
       <r>   -0.0923    1.0000 </r>
       <r>    0.0133    1.0000 </r>
       <r>    0.2206    1.0000 </r>
       <r>    0.2937    1.0000 </r>
       <r>    0.4520    1.0000 </r>
       <r>    0.4855    1.0000 </r>
       <r>    0.6271    1.0000 </r>
       <r>    0.8159    1.0000 </r>
[...]
       <r>  -26.7035    1.0000 </r>
       <r>  -13.3347    1.0000 </r>
       <r>  -13.1970    1.0000 </r>
       <r>  -12.6479    1.0000 </r>
       <r>  -12.6107    1.0000 </r>
       <r>  -12.5183    1.0000 </r>
       <r>  -12.3608    1.0000 </r>
       <r>  -12.2614    1.0000 </r>
       <r>  -12.2352    1.0000 </r>
       <r>  -12.2022    1.0000 </r>
       <r>  -12.1850    1.0000 </r>
       <r>  -12.1370    1.0000 </r>
       <r>  -12.0539    1.0000 </r>
       <r>  -11.0691    1.0000 </r>
       <r>  -11.0198    1.0000 </r>
       <r>  -10.9077    1.0000 </r>
       <r>  -10.9001    1.0000 </r>
       <r>  -10.8809    1.0000 </r>
       <r>  -10.8347    1.0000 </r>
       <r>  -10.8033    1.0000 </r>
       <r>  -10.7470    1.0000 </r>
       <r>  -10.7250    1.0000 </r>
       <r>  -10.7053    1.0000 </r>
       <r>  -10.6445    1.0000 </r>
       <r>  -10.5978    1.0000 </r>
       <r>   -0.5461    1.0000 </r>
       <r>   -0.3103    1.0000 </r>
       <r>   -0.2452    1.0000 </r>
       <r>   -0.1420    1.0000 </r>
       <r>    0.0086    1.0000 </r>
       <r>    0.3170    1.0000 </r>
       <r>    0.3529    1.0000 </r>
       <r>    0.6321    1.0000 </r>
       <r>    0.6416    1.0000 </r>
       <r>    0.6817    1.0000 </r>
       <r>    0.7100    1.0000 </r>
       <r>    0.7848    1.0000 </r>
       <r>    0.9150    1.0000 </r>
       <r>    1.0189    1.0000 </r>
       <r>    1.0846    1.0000 </r>
       <r>    1.2896    1.0000 </r>
       <r>    1.3352    1.0000 </r>
       <r>    1.3383    1.0000 </r>
       <r>    1.5597    1.0000 </r>
       <r>    2.0177    1.0000 </r>
       <r>    2.0424    1.0000 </r>
       <r>    2.1723    1.0000 </r>
       <r>    2.4329    1.0000 </r>
       <r>    2.5203    1.0000 </r>
       <r>    2.6367    1.0000 </r>
       <r>    2.7490    1.0000 </r>
       <r>    3.1177    1.0000 </r>
       <r>    3.1205    1.0000 </r>
       <r>    3.2211    1.0000 </r>
       <r>    3.2549    1.0000 </r>
       <r>    3.3052    1.0000 </r>
       <r>    3.3397    1.0000 </r>
       <r>    3.3798    1.0000 </r>
       <r>    3.4501    1.0000 </r>
       <r>    3.6812    1.0000 </r>
       <r>    3.8995    1.0000 </r>
       <r>    6.2745    1.0878 </r>
       <r>    6.7984    0.0000 </r>
       <r>    6.9351    0.0000 </r>
       <r>    7.1547    0.0000 </r>
       <r>    7.1588    0.0000 </r>
       <r>    7.1938    0.0000 </r>
       <r>    8.0722    0.0000 </r>
       <r>    8.2692    0.0000 </r>
       <r>    8.2909    0.0000 </r>
       <r>    8.4725    0.0000 </r>
       <r>    8.4995    0.0000 </r>
       <r>    8.6625    0.0000 </r>
       <r>    8.7855    0.0000 </r>
       <r>    9.0785    0.0000 </r>
       <r>    9.9989    0.0000 </r>
       <r>   10.2182    0.0000 </r>
      </set>
     </set>
    </set>
   </array>
  </eigenvalues>
  <separator name="orbital magnetization" >
   <v name="MAGDIPOLOUT">      0.00000000      0.00000000      0.00000000</v>
  </separator>
  <dos>
   <i name="efermi">      6.48925126 </i>
   <total>
    <array>
     <dimension dim="1">gridpoints</dimension>
     <dimension dim="2">spin</dimension>
     <field>energy</field>
     <field>total</field>
     <field>integrated</field>
     <set>
      <set comment="spin 1">
       <r>   -55.1600     0.0000     0.0000 </r>
       <r>   -54.9306     0.0000     0.0000 </r>
       <r>   -54.7013     0.0000     0.0000 </r>
       <r>   -54.4719     0.0000     0.0000 </r>
       <r>   -54.2425     0.0000     0.0000 </r>
       <r>   -54.0131     0.0000     0.0000 </r>
       <r>   -53.7838     0.0000     0.0000 </r>
       <r>   -53.5544     0.0000     0.0000 </r>
       <r>   -53.3250     0.0000     0.0000 </r>
       <r>   -53.0957     0.0000     0.0000 </r>
       <r>   -52.8663     0.0000     0.0000 </r>
       <r>   -52.6369     0.0000     0.0000 </r>
       <r>   -52.4076     0.0000     0.0000 </r>
       <r>   -52.1782     0.0000     0.0000 </r>
       <r>   -51.9488     0.0000     6.0000 </r>
       <r>   -51.7195     0.0000     6.0000 </r>
       <r>   -51.4901     0.0000     6.0000 </r>
       <r>   -51.2607     0.0000     6.0000 </r>
       <r>   -51.0314     0.0000     6.0000 </r>
       <r>   -50.8020     0.0000     6.0000 </r>
       <r>   -50.5726     0.0000     6.0000 </r>
       <r>   -50.3433     0.0000     8.0000 </r>
       <r>   -50.1139     0.0000     8.0000 </r>
       <r>   -49.8845     0.0000     8.0000 </r>
       <r>   -49.6552     0.0000     8.0000 </r>
       <r>   -49.4258     0.0000     8.0000 </r>
       <r>   -49.1964     0.0000     8.0000 </r>
       <r>   -48.9671     0.0000     8.0000 </r>
       <r>   -48.7377     0.0000     8.0000 </r>
       <r>   -48.5083     0.0000     8.0000 </r>
       <r>   -48.2790     0.0000     8.0000 </r>
       <r>   -48.0496     0.0000     8.0000 </r>
       <r>   -47.8202     0.0000     8.0000 </r>
       <r>   -47.5909     0.0000     8.0000 </r>
       <r>   -47.3615     0.0000     8.0000 </r>
       <r>   -47.1321     0.0000     8.0000 </r>
       <r>   -46.9028     0.0000     8.0000 </r>
       <r>   -46.6734     0.0000     8.0000 </r>
       <r>   -46.4440     0.0000     8.0000 </r>
       <r>   -46.2147     0.0000     8.0000 </r>
       <r>   -45.9853     0.0000     8.0000 </r>
       <r>   -45.7559     0.0000     8.0000 </r>
       <r>   -45.5266     0.0000     8.0000 </r>
       <r>   -45.2972     0.0000     8.0000 </r>
       <r>   -45.0678     0.0000     8.0000 </r>
       <r>   -44.8385     0.0000     8.0000 </r>
       <r>   -44.6091     0.0000     8.0000 </r>
       <r>   -44.3797     0.0000     8.0000 </r>
       <r>   -44.1504     0.0000     8.0000 </r>
       <r>   -43.9210     0.0000     8.0000 </r>
       <r>   -43.6916     0.0000     8.0000 </r>
       <r>   -43.4623     0.0000     8.0000 </r>
       <r>   -43.2329     0.0000     8.0000 </r>
       <r>   -43.0035     0.0000     8.0000 </r>
       <r>   -42.7742     0.0000     8.0000 </r>
       <r>   -42.5448     0.0000     8.0000 </r>
       <r>   -42.3154     0.0000     8.0000 </r>
       <r>   -42.0860     0.0000     8.0000 </r>
       <r>   -41.8567     0.0000     8.0000 </r>
       <r>   -41.6273     0.0000     8.0000 </r>
       <r>   -41.3979     0.0000     8.0000 </r>
       <r>   -41.1686     0.0000     8.0000 </r>
       <r>   -40.9392     0.0000     8.0000 </r>
       <r>   -40.7098     0.0000     8.0000 </r>
       <r>   -40.4805     0.0000     8.0000 </r>
       <r>   -40.2511     0.0000     8.0000 </r>
       <r>   -40.0217     0.0000     8.0000 </r>
       <r>   -39.7924     0.0000     8.0000 </r>
       <r>   -39.5630     0.0000     8.0000 </r>
       <r>   -39.3336     0.0000     8.0000 </r>
       <r>   -39.1043     0.0000     8.0000 </r>
       <r>   -38.8749     0.0000     8.0000 </r>
       <r>   -38.6455     0.0000     8.0000 </r>
       <r>   -38.4162     0.0000     8.0000 </r>
       <r>   -38.1868     0.0000     8.0000 </r>
       <r>   -37.9574     0.0000     8.0000 </r>
       <r>   -37.7281     0.0000     8.0000 </r>
       <r>   -37.4987     0.0000     8.0000 </r>
       <r>   -37.2693     0.0000     8.0000 </r>
       <r>   -37.0400     0.0000     8.0000 </r>
       <r>   -36.8106     0.0000     8.0000 </r>
       <r>   -36.5812     0.0000     8.0000 </r>
       <r>   -36.3519     0.0000     8.0000 </r>
       <r>   -36.1225     0.0000     8.0000 </r>
       <r>   -35.8931     0.0000     8.0000 </r>
       <r>   -35.6638     0.0000     8.0000 </r>
       <r>   -35.4344     0.0000     8.0000 </r>
       <r>   -35.2050     0.0000     8.0000 </r>
       <r>   -34.9757     0.0000     8.0000 </r>
       <r>   -34.7463     0.0000     8.0000 </r>
       <r>   -34.5169     0.0000     8.0000 </r>
       <r>   -34.2876     0.0000     8.0000 </r>
       <r>   -34.0582     0.0000     8.0000 </r>
       <r>   -33.8288     0.0000     8.0000 </r>
       <r>   -33.5995     0.0000     8.0000 </r>
       <r>   -33.3701     0.0000     8.0000 </r>
       <r>   -33.1407     0.0000     8.0000 </r>
       <r>   -32.9114     0.0000     8.0000 </r>
       <r>   -32.6820     0.0000     8.0000 </r>
       <r>   -32.4526     0.0000     8.0000 </r>
       <r>   -32.2233     0.0000     8.0000 </r>
       <r>   -31.9939     0.0000     8.0000 </r>
       <r>   -31.7645     0.0000     8.0000 </r>
       <r>   -31.5352     0.0000     8.0000 </r>
       <r>   -31.3058     0.0000     8.0000 </r>
       <r>   -31.0764     0.0000     8.0000 </r>
       <r>   -30.8471     0.0000     8.0000 </r>
       <r>   -30.6177     0.0000     8.0000 </r>
       <r>   -30.3883     0.0000     8.0000 </r>
       <r>   -30.1589     0.0000     8.0000 </r>
       <r>   -29.9296     0.0000     8.0000 </r>
       <r>   -29.7002     0.0000     8.0000 </r>
       <r>   -29.4708     0.0000     8.0000 </r>
       <r>   -29.2415     0.0000     8.0000 </r>
       <r>   -29.0121     0.0000     8.0000 </r>
       <r>   -28.7827     0.0000    16.0000 </r>
       <r>   -28.5534     0.0000    16.0000 </r>
       <r>   -28.3240   849.4203    19.9821 </r>
       <r>   -28.0946     0.0000    34.0000 </r>
       <r>   -27.8653     0.0000    34.0000 </r>
       <r>   -27.6359     0.0000    34.0000 </r>
       <r>   -27.4065     0.0000    34.0000 </r>
       <r>   -27.1772     0.0000    34.0000 </r>
       <r>   -26.9478     0.0000    34.0000 </r>
       <r>   -26.7184     0.0000    34.0000 </r>
       <r>   -26.4891     0.0000    40.0000 </r>
       <r>   -26.2597     0.0000    40.0000 </r>
       <r>   -26.0303     0.0000    40.0000 </r>
       <r>   -25.8010     0.0000    40.0000 </r>
       <r>   -25.5716     0.0000    40.0000 </r>
       <r>   -25.3422     0.0000    40.0000 </r>
       <r>   -25.1129     0.0000    40.0000 </r>
       <r>   -24.8835     0.0000    40.0000 </r>
       <r>   -24.6541     0.0000    40.0000 </r>
       <r>   -24.4248     0.0000    40.0000 </r>
       <r>   -24.1954     0.0000    40.0000 </r>
       <r>   -23.9660     0.0000    40.0000 </r>
       <r>   -23.7367     0.0000    40.0000 </r>
       <r>   -23.5073     0.0000    40.0000 </r>
       <r>   -23.2779     0.0000    40.0000 </r>
       <r>   -23.0486     0.0000    40.0000 </r>
       <r>   -22.8192     0.0000    40.0000 </r>
       <r>   -22.5898     0.0000    40.0000 </r>
       <r>   -22.3605     0.0000    40.0000 </r>
       <r>   -22.1311     0.0000    40.0000 </r>
       <r>   -21.9017     0.0000    40.0000 </r>
       <r>   -21.6724     0.0000    40.0000 </r>
       <r>   -21.4430     0.0000    40.0000 </r>
       <r>   -21.2136     0.0000    40.0000 </r>
       <r>   -20.9843     0.0000    40.0000 </r>
       <r>   -20.7549     0.0000    40.0000 </r>
       <r>   -20.5255     0.0000    40.0000 </r>
       <r>   -20.2962     0.0000    40.0000 </r>
       <r>   -20.0668     0.0000    40.0000 </r>
       <r>   -19.8374     0.0000    40.0000 </r>
       <r>   -19.6081     0.0000    40.0000 </r>
       <r>   -19.3787     0.0000    40.0000 </r>
       <r>   -19.1493     0.0000    40.0000 </r>
       <r>   -18.9200     0.0000    40.0000 </r>
       <r>   -18.6906     0.0000    40.0000 </r>
       <r>   -18.4612     0.0000    40.0000 </r>
       <r>   -18.2318     0.0000    40.0000 </r>
       <r>   -18.0025     0.0000    40.0000 </r>
       <r>   -17.7731     0.0000    40.0000 </r>
       <r>   -17.5437     0.0000    40.0000 </r>
       <r>   -17.3144     0.0000    40.0000 </r>
       <r>   -17.0850     0.0000    40.0000 </r>
       <r>   -16.8556     0.0000    40.0000 </r>
       <r>   -16.6263     0.0000    40.0000 </r>
       <r>   -16.3969     0.0000    40.0000 </r>
       <r>   -16.1675     0.0000    40.0000 </r>
       <r>   -15.9382     0.0000    40.0000 </r>
       <r>   -15.7088     0.0000    40.0000 </r>
       <r>   -15.4794     0.0000    40.0000 </r>
       <r>   -15.2501     0.0000    40.0000 </r>
       <r>   -15.0207     0.0000    40.0000 </r>
       <r>   -14.7913     0.0000    40.0000 </r>
       <r>   -14.5620     0.0000    40.0000 </r>
       <r>   -14.3326     0.0000    40.0000 </r>
       <r>   -14.1032     0.0000    40.0000 </r>
       <r>   -13.8739     0.0000    40.0000 </r>
       <r>   -13.6445     0.0000    40.0000 </r>
       <r>   -13.4151     4.0886    40.1041 </r>
       <r>   -13.1858    11.3756    42.3355 </r>
       <r>   -12.9564     8.2313    45.0580 </r>
       <r>   -12.7270     6.8182    46.7317 </r>
       <r>   -12.4977    14.0291    49.9507 </r>
       <r>   -12.2683    42.0247    54.3689 </r>
       <r>   -12.0389    16.9502    63.7138 </r>
       <r>   -11.8096     0.0000    64.0000 </r>
       <r>   -11.5802     0.0000    64.0000 </r>
       <r>   -11.3508     0.0000    64.0000 </r>
       <r>   -11.1215     1.1405    64.0115 </r>
       <r>   -10.8921   128.3356    70.2043 </r>
       <r>   -10.6627    29.6529    79.9311 </r>
       <r>   -10.4334    19.5215    87.6005 </r>
       <r>   -10.2040     0.0000    88.0000 </r>
       <r>    -9.9746     0.0000    88.0000 </r>
       <r>    -9.7453     0.0000    88.0000 </r>
       <r>    -9.5159     0.0000    88.0000 </r>
       <r>    -9.2865     0.0000    88.0000 </r>
       <r>    -9.0572     0.0000    88.0000 </r>
       <r>    -8.8278     0.0000    88.0000 </r>
       <r>    -8.5984     0.0000    88.0000 </r>
       <r>    -8.3691     0.0000    88.0000 </r>
       <r>    -8.1397     0.0000    88.0000 </r>
       <r>    -7.9103     0.0000    88.0000 </r>
       <r>    -7.6810     0.0000    88.0000 </r>
       <r>    -7.4516     0.0000    88.0000 </r>
       <r>    -7.2222     0.0000    88.0000 </r>
       <r>    -6.9928     0.0000    88.0000 </r>
       <r>    -6.7635     0.0000    88.0000 </r>
       <r>    -6.5341     0.0000    88.0000 </r>
       <r>    -6.3047     0.0000    88.0000 </r>
       <r>    -6.0754     0.0000    88.0000 </r>
       <r>    -5.8460     0.0000    88.0000 </r>
       <r>    -5.6166     0.0000    88.0000 </r>
       <r>    -5.3873     0.0000    88.0000 </r>
       <r>    -5.1579     0.0000    88.0000 </r>
       <r>    -4.9285     0.0000    88.0000 </r>
       <r>    -4.6992     0.0000    88.0000 </r>
       <r>    -4.4698     0.0000    88.0000 </r>
       <r>    -4.2404     0.0000    88.0000 </r>
       <r>    -4.0111     0.0000    88.0000 </r>
       <r>    -3.7817     0.0000    88.0000 </r>
       <r>    -3.5523     0.0000    88.0000 </r>
       <r>    -3.3230     0.0000    88.0000 </r>
       <r>    -3.0936     0.0000    88.0000 </r>
       <r>    -2.8642     0.0000    88.0000 </r>
       <r>    -2.6349     0.0000    88.0000 </r>
       <r>    -2.4055     0.0000    88.0000 </r>
       <r>    -2.1761     0.0000    88.0000 </r>
       <r>    -1.9468     0.0000    88.0000 </r>
       <r>    -1.7174     0.0000    88.0000 </r>
       <r>    -1.4880     0.0000    88.0000 </r>
       <r>    -1.2587     0.0000    88.0000 </r>
       <r>    -1.0293     0.0000    88.0000 </r>
       <r>    -0.7999     0.0000    88.0000 </r>
       <r>    -0.5706    29.8085    89.0936 </r>
       <r>    -0.3412    11.2149    91.5141 </r>
       <r>    -0.1118    27.2896    94.7953 </r>
       <r>     0.1175     1.8056    97.9385 </r>
       <r>     0.3469    10.9941   100.4047 </r>
       <r>     0.5763    22.0183   104.9518 </r>
       <r>     0.8056    11.1482   109.3636 </r>
       <r>     1.0350    19.8580   112.9339 </r>
       <r>     1.2644    55.0314   118.8458 </r>
       <r>     1.4937    17.5641   124.7983 </r>
       <r>     1.7231     7.8857   127.4996 </r>
       <r>     1.9525     8.7752   129.6551 </r>
       <r>     2.1818    17.2698   131.6040 </r>
       <r>     2.4112     9.9799   134.9168 </r>
       <r>     2.6406    14.4908   138.2549 </r>
       <r>     2.8699    22.8549   142.9789 </r>
       <r>     3.0993    27.4650   148.7988 </r>
       <r>     3.3287    19.3366   153.9745 </r>
       <r>     3.5580     9.4275   156.6072 </r>
       <r>     3.7874    10.0924   158.8280 </r>
       <r>     4.0168     0.0000   160.0000 </r>
       <r>     4.2461     0.0000   160.0000 </r>
       <r>     4.4755     0.0000   160.0000 </r>
       <r>     4.7049     0.0000   160.0000 </r>
       <r>     4.9343     0.0000   160.0000 </r>
       <r>     5.1636     0.0000   160.0000 </r>
       <r>     5.3930     0.0000   160.0000 </r>
       <r>     5.6224     0.0000   160.0000 </r>
       <r>     5.8517     0.0000   160.0000 </r>
       <r>     6.0811     0.0018   160.0000 </r>
       <r>     6.3105     2.9825   160.2374 </r>
       <r>     6.5398     5.1640   161.2576 </r>
       <r>     6.7692     6.0335   162.6014 </r>
       <r>     6.9986     4.9423   163.6500 </r>
       <r>     7.2279     8.1454   165.1014 </r>
       <r>     7.4573    11.6949   167.8097 </r>
       <r>     7.6867    10.3407   169.7062 </r>
       <r>     7.9160    21.6766   172.8288 </r>
       <r>     8.1454    12.1110   176.9133 </r>
       <r>     8.3748     6.9798   180.6329 </r>
       <r>     8.6041     9.2350   183.4040 </r>
       <r>     8.8335     4.1170   184.2156 </r>
       <r>     9.0629    11.1974   185.6552 </r>
       <r>     9.2922     2.5893   186.6485 </r>
       <r>     9.5216     9.0978   187.7380 </r>
       <r>     9.7510     8.8644   188.6263 </r>
       <r>     9.9803     4.9394   189.8339 </r>
       <r>    10.2097    10.2540   191.2931 </r>
       <r>    10.4391     0.2774   191.9923 </r>
       <r>    10.6684     0.0000   192.0000 </r>
       <r>    10.8978     0.0000   192.0000 </r>
       <r>    11.1272     0.0000   192.0000 </r>
       <r>    11.3565     0.0000   192.0000 </r>
       <r>    11.5859     0.0000   192.0000 </r>
       <r>    11.8153     0.0000   192.0000 </r>
       <r>    12.0446     0.0000   192.0000 </r>
       <r>    12.2740     0.0000   192.0000 </r>
       <r>    12.5034     0.0000   192.0000 </r>
       <r>    12.7327     0.0000   192.0000 </r>
       <r>    12.9621     0.0000   192.0000 </r>
       <r>    13.1915     0.0000   192.0000 </r>
       <r>    13.4208     0.0000   192.0000 </r>
       <r>    13.6502     0.0000   192.0000 </r>
      </set>
     </set>
    </array>
   </total>
  </dos>
 </calculation>
 <structure name="finalpos" >
  <crystal>
   <varray name="basis" >
    <v>       3.97524207      -7.94597422       3.97524207 </v>
    <v>       7.94597422      -3.97524207       3.97524207 </v>
    <v>       3.97524207      -3.97524207       7.94597422 </v>
   </varray>
   <i name="volume">    250.63490914 </i>
   <varray name="rec_basis" >
    <v>      -0.06297854      -0.18886418      -0.06297854 </v>
    <v>       0.18886418       0.06297854      -0.06297854 </v>
    <v>      -0.06297854       0.06297854       0.18886418 </v>
   </varray>
  </crystal>
  <varray name="positions" >
   <v>       0.37500000       0.37500000       0.37500000 </v>
   <v>       0.24948453       0.75186550       0.24948453 </v>
   <v>       0.99813450       0.50051547       0.50051547 </v>
   <v>       0.24948453       0.24948453       0.75186550 </v>
   <v>       0.50051547       0.99813450       0.50051547 </v>
   <v>       0.24992588       0.74995286       0.74995286 </v>
   <v>       0.50051547       0.50051547       0.99813450 </v>
   <v>       0.74995286       0.24992588       0.74995286 </v>
   <v>       0.50007412       0.00004714       0.00004714 </v>
   <v>       0.74995286       0.74995286       0.24992588 </v>
   <v>       0.00004714       0.50007412       0.00004714 </v>
   <v>       0.75186550       0.24948453       0.24948453 </v>
   <v>       0.00004714       0.00004714       0.50007412 </v>
   <v>       0.75215888       0.75215888       0.75215888 </v>
   <v>       0.99784112       0.99784112       0.99784112 </v>
   <v>       0.24830383       0.24830383       0.24830383 </v>
   <v>       0.50169617       0.50169617       0.50169617 </v>
   <v>       0.62286994       0.62286994       0.62286994 </v>
   <v>       0.87500000       0.87500000       0.87500000 </v>
   <v>       0.12713006       0.12713006       0.12713006 </v>
  </varray>
 </structure>
</modeling>
