  15  15   0   0
  0.1301594E+02  0.4023332E-09  0.4023332E-09  0.1206132E-08  0.5000000E-15
  1.000000000000000E-004
  CAR 
 unknown system                          
     14.97490689    -54.52183742  301      7.15945028      1.00000000
    -54.522  0.0000E+00  0.0000E+00
    -54.290  0.0000E+00  0.0000E+00
    -54.059  0.0000E+00  0.0000E+00
    -53.827  0.0000E+00  0.0000E+00
    -53.595  0.0000E+00  0.0000E+00
    -53.364  0.0000E+00  0.0000E+00
    -53.132  0.0000E+00  0.0000E+00
    -52.900  0.0000E+00  0.0000E+00
    -52.669  0.0000E+00  0.0000E+00
    -52.437  0.0000E+00  0.0000E+00
    -52.205  0.0000E+00  0.0000E+00
    -51.974  0.0000E+00  0.0000E+00
    -51.742  0.0000E+00  0.0000E+00
    -51.510  0.0000E+00  0.0000E+00
    -51.279  0.0000E+00  0.2000E+01
    -51.047  0.0000E+00  0.2000E+01
    -50.815  0.0000E+00  0.2000E+01
    -50.584  0.0000E+00  0.2000E+01
    -50.352  0.0000E+00  0.2000E+01
    -50.120  0.0000E+00  0.2000E+01
    -49.889  0.0000E+00  0.2000E+01
    -49.657  0.0000E+00  0.6000E+01
    -49.425  0.0000E+00  0.6000E+01
    -49.194  0.0000E+00  0.6000E+01
    -48.962  0.0000E+00  0.6000E+01
    -48.730  0.0000E+00  0.6000E+01
    -48.499  0.0000E+00  0.6000E+01
    -48.267  0.0000E+00  0.6000E+01
    -48.035  0.0000E+00  0.6000E+01
    -47.804  0.0000E+00  0.6000E+01
    -47.572  0.0000E+00  0.6000E+01
    -47.341  0.0000E+00  0.6000E+01
    -47.109  0.0000E+00  0.6000E+01
    -46.877  0.0000E+00  0.6000E+01
    -46.646  0.0000E+00  0.6000E+01
    -46.414  0.0000E+00  0.6000E+01
    -46.182  0.0000E+00  0.6000E+01
    -45.951  0.0000E+00  0.6000E+01
    -45.719  0.0000E+00  0.6000E+01
    -45.487  0.0000E+00  0.6000E+01
    -45.256  0.0000E+00  0.6000E+01
    -45.024  0.0000E+00  0.6000E+01
    -44.792  0.0000E+00  0.6000E+01
    -44.561  0.0000E+00  0.6000E+01
    -44.329  0.0000E+00  0.6000E+01
    -44.097  0.0000E+00  0.6000E+01
    -43.866  0.0000E+00  0.6000E+01
    -43.634  0.0000E+00  0.6000E+01
    -43.402  0.0000E+00  0.6000E+01
    -43.171  0.0000E+00  0.6000E+01
    -42.939  0.0000E+00  0.6000E+01
    -42.707  0.0000E+00  0.6000E+01
    -42.476  0.0000E+00  0.6000E+01
    -42.244  0.0000E+00  0.6000E+01
    -42.012  0.0000E+00  0.6000E+01
    -41.781  0.0000E+00  0.6000E+01
    -41.549  0.0000E+00  0.6000E+01
    -41.317  0.0000E+00  0.6000E+01
    -41.086  0.0000E+00  0.6000E+01
    -40.854  0.0000E+00  0.6000E+01
    -40.622  0.0000E+00  0.6000E+01
    -40.391  0.0000E+00  0.6000E+01
    -40.159  0.0000E+00  0.6000E+01
    -39.928  0.0000E+00  0.6000E+01
    -39.696  0.0000E+00  0.6000E+01
    -39.464  0.0000E+00  0.6000E+01
    -39.233  0.0000E+00  0.6000E+01
    -39.001  0.0000E+00  0.6000E+01
    -38.769  0.0000E+00  0.6000E+01
    -38.538  0.0000E+00  0.6000E+01
    -38.306  0.0000E+00  0.6000E+01
    -38.074  0.0000E+00  0.6000E+01
    -37.843  0.0000E+00  0.6000E+01
    -37.611  0.0000E+00  0.6000E+01
    -37.379  0.0000E+00  0.6000E+01
    -37.148  0.0000E+00  0.6000E+01
    -36.916  0.0000E+00  0.6000E+01
    -36.684  0.0000E+00  0.6000E+01
    -36.453  0.0000E+00  0.6000E+01
    -36.221  0.0000E+00  0.6000E+01
    -35.989  0.0000E+00  0.6000E+01
    -35.758  0.0000E+00  0.6000E+01
    -35.526  0.0000E+00  0.6000E+01
    -35.294  0.0000E+00  0.6000E+01
    -35.063  0.0000E+00  0.6000E+01
    -34.831  0.0000E+00  0.6000E+01
    -34.599  0.0000E+00  0.6000E+01
    -34.368  0.0000E+00  0.6000E+01
    -34.136  0.0000E+00  0.6000E+01
    -33.904  0.0000E+00  0.6000E+01
    -33.673  0.0000E+00  0.6000E+01
    -33.441  0.0000E+00  0.6000E+01
    -33.210  0.0000E+00  0.6000E+01
    -32.978  0.0000E+00  0.6000E+01
    -32.746  0.0000E+00  0.6000E+01
    -32.515  0.0000E+00  0.6000E+01
    -32.283  0.0000E+00  0.6000E+01
    -32.051  0.0000E+00  0.6000E+01
    -31.820  0.0000E+00  0.6000E+01
    -31.588  0.0000E+00  0.6000E+01
    -31.356  0.0000E+00  0.6000E+01
    -31.125  0.0000E+00  0.6000E+01
    -30.893  0.0000E+00  0.6000E+01
    -30.661  0.0000E+00  0.6000E+01
    -30.430  0.0000E+00  0.6000E+01
    -30.198  0.0000E+00  0.6000E+01
    -29.966  0.0000E+00  0.6000E+01
    -29.735  0.0000E+00  0.6000E+01
    -29.503  0.0000E+00  0.6000E+01
    -29.271  0.0000E+00  0.6000E+01
    -29.040  0.0000E+00  0.8000E+01
    -28.808  0.1007E+03  0.9894E+01
    -28.576  0.0000E+00  0.1200E+02
    -28.345  0.0000E+00  0.1200E+02
    -28.113  0.0000E+00  0.1200E+02
    -27.881  0.0000E+00  0.1200E+02
    -27.650  0.4990E+02  0.1403E+02
    -27.418  0.0000E+00  0.1800E+02
    -27.186  0.0000E+00  0.1800E+02
    -26.955  0.0000E+00  0.1800E+02
    -26.723  0.0000E+00  0.1800E+02
    -26.491  0.0000E+00  0.1800E+02
    -26.260  0.0000E+00  0.1800E+02
    -26.028  0.0000E+00  0.1800E+02
    -25.797  0.0000E+00  0.3000E+02
    -25.565  0.0000E+00  0.3000E+02
    -25.333  0.0000E+00  0.3000E+02
    -25.102  0.0000E+00  0.3000E+02
    -24.870  0.0000E+00  0.3000E+02
    -24.638  0.0000E+00  0.3000E+02
    -24.407  0.0000E+00  0.3000E+02
    -24.175  0.0000E+00  0.3000E+02
    -23.943  0.0000E+00  0.3000E+02
    -23.712  0.0000E+00  0.3000E+02
    -23.480  0.0000E+00  0.3000E+02
    -23.248  0.0000E+00  0.3000E+02
    -23.017  0.0000E+00  0.3000E+02
    -22.785  0.0000E+00  0.3000E+02
    -22.553  0.0000E+00  0.3000E+02
    -22.322  0.0000E+00  0.3000E+02
    -22.090  0.0000E+00  0.3000E+02
    -21.858  0.0000E+00  0.3000E+02
    -21.627  0.0000E+00  0.3000E+02
    -21.395  0.0000E+00  0.3000E+02
    -21.163  0.0000E+00  0.3000E+02
    -20.932  0.0000E+00  0.3000E+02
    -20.700  0.0000E+00  0.3000E+02
    -20.468  0.0000E+00  0.3000E+02
    -20.237  0.0000E+00  0.3000E+02
    -20.005  0.0000E+00  0.3000E+02
    -19.773  0.0000E+00  0.3000E+02
    -19.542  0.0000E+00  0.3000E+02
    -19.310  0.0000E+00  0.3000E+02
    -19.078  0.0000E+00  0.3000E+02
    -18.847  0.0000E+00  0.3000E+02
    -18.615  0.0000E+00  0.3000E+02
    -18.384  0.0000E+00  0.3000E+02
    -18.152  0.0000E+00  0.3000E+02
    -17.920  0.0000E+00  0.3000E+02
    -17.689  0.0000E+00  0.3000E+02
    -17.457  0.0000E+00  0.3000E+02
    -17.225  0.0000E+00  0.3000E+02
    -16.994  0.0000E+00  0.3000E+02
    -16.762  0.0000E+00  0.3000E+02
    -16.530  0.0000E+00  0.3000E+02
    -16.299  0.0000E+00  0.3000E+02
    -16.067  0.0000E+00  0.3000E+02
    -15.835  0.0000E+00  0.3000E+02
    -15.604  0.0000E+00  0.3000E+02
    -15.372  0.0000E+00  0.3000E+02
    -15.140  0.0000E+00  0.3000E+02
    -14.909  0.0000E+00  0.3000E+02
    -14.677  0.0000E+00  0.3000E+02
    -14.445  0.0000E+00  0.3000E+02
    -14.214  0.0000E+00  0.3000E+02
    -13.982  0.0000E+00  0.3000E+02
    -13.750  0.0000E+00  0.3000E+02
    -13.519  0.0000E+00  0.3000E+02
    -13.287  0.4199E+01  0.3017E+02
    -13.055  0.5898E+01  0.3179E+02
    -12.824  0.8290E+01  0.3325E+02
    -12.592  0.8537E+01  0.3534E+02
    -12.360  0.1207E+02  0.3818E+02
    -12.129  0.1252E+02  0.4111E+02
    -11.897  0.8537E+01  0.4562E+02
    -11.666  0.0000E+00  0.4800E+02
    -11.434  0.0000E+00  0.4800E+02
    -11.202  0.0000E+00  0.4800E+02
    -10.971  0.2460E+02  0.5154E+02
    -10.739  0.5246E+02  0.5756E+02
    -10.507  0.1384E+02  0.6239E+02
    -10.276  0.7338E+01  0.6598E+02
    -10.044  0.0000E+00  0.6600E+02
     -9.812  0.0000E+00  0.6600E+02
     -9.581  0.0000E+00  0.6600E+02
     -9.349  0.0000E+00  0.6600E+02
     -9.117  0.0000E+00  0.6600E+02
     -8.886  0.0000E+00  0.6600E+02
     -8.654  0.0000E+00  0.6600E+02
     -8.422  0.0000E+00  0.6600E+02
     -8.191  0.0000E+00  0.6600E+02
     -7.959  0.0000E+00  0.6600E+02
     -7.727  0.0000E+00  0.6600E+02
     -7.496  0.0000E+00  0.6600E+02
     -7.264  0.0000E+00  0.6600E+02
     -7.032  0.0000E+00  0.6600E+02
     -6.801  0.0000E+00  0.6600E+02
     -6.569  0.0000E+00  0.6600E+02
     -6.337  0.0000E+00  0.6600E+02
     -6.106  0.0000E+00  0.6600E+02
     -5.874  0.0000E+00  0.6600E+02
     -5.642  0.0000E+00  0.6600E+02
     -5.411  0.0000E+00  0.6600E+02
     -5.179  0.0000E+00  0.6600E+02
     -4.947  0.0000E+00  0.6600E+02
     -4.716  0.0000E+00  0.6600E+02
     -4.484  0.0000E+00  0.6600E+02
     -4.253  0.0000E+00  0.6600E+02
     -4.021  0.0000E+00  0.6600E+02
     -3.789  0.0000E+00  0.6600E+02
     -3.558  0.0000E+00  0.6600E+02
     -3.326  0.0000E+00  0.6600E+02
     -3.094  0.0000E+00  0.6600E+02
     -2.863  0.0000E+00  0.6600E+02
     -2.631  0.0000E+00  0.6600E+02
     -2.399  0.0000E+00  0.6600E+02
     -2.168  0.0000E+00  0.6600E+02
     -1.936  0.0000E+00  0.6600E+02
     -1.704  0.0000E+00  0.6600E+02
     -1.473  0.0000E+00  0.6600E+02
     -1.241  0.0000E+00  0.6600E+02
     -1.009  0.0000E+00  0.6600E+02
     -0.778  0.0000E+00  0.6600E+02
     -0.546  0.3770E+01  0.6763E+02
     -0.314  0.9538E+01  0.6895E+02
     -0.083  0.8903E+01  0.7128E+02
      0.149  0.8405E+01  0.7311E+02
      0.381  0.9381E+01  0.7535E+02
      0.612  0.1261E+02  0.7800E+02
      0.844  0.1267E+02  0.8081E+02
      1.076  0.1356E+02  0.8384E+02
      1.307  0.1458E+02  0.8715E+02
      1.539  0.1927E+02  0.9097E+02
      1.771  0.1121E+02  0.9473E+02
      2.002  0.7755E+01  0.9679E+02
      2.234  0.8543E+01  0.9891E+02
      2.465  0.7079E+01  0.1012E+03
      2.697  0.2649E+02  0.1042E+03
      2.929  0.1487E+02  0.1081E+03
      3.160  0.1058E+02  0.1107E+03
      3.392  0.1491E+02  0.1147E+03
      3.624  0.7822E+01  0.1170E+03
      3.855  0.5719E+01  0.1188E+03
      4.087  0.8808E+00  0.1199E+03
      4.319  0.0000E+00  0.1200E+03
      4.550  0.0000E+00  0.1200E+03
      4.782  0.0000E+00  0.1200E+03
      5.014  0.0000E+00  0.1200E+03
      5.245  0.0000E+00  0.1200E+03
      5.477  0.0000E+00  0.1200E+03
      5.709  0.0000E+00  0.1200E+03
      5.940  0.0000E+00  0.1200E+03
      6.172  0.5609E-01  0.1200E+03
      6.404  0.4750E+00  0.1201E+03
      6.635  0.1840E+01  0.1203E+03
      6.867  0.3725E+01  0.1210E+03
      7.099  0.2994E+01  0.1218E+03
      7.330  0.2837E+01  0.1225E+03
      7.562  0.4951E+01  0.1235E+03
      7.794  0.5900E+01  0.1247E+03
      8.025  0.7287E+01  0.1263E+03
      8.257  0.8557E+01  0.1281E+03
      8.489  0.1153E+02  0.1307E+03
      8.720  0.9594E+01  0.1334E+03
      8.952  0.6247E+01  0.1355E+03
      9.184  0.4711E+01  0.1367E+03
      9.415  0.4138E+01  0.1377E+03
      9.647  0.3407E+01  0.1386E+03
      9.878  0.3706E+01  0.1394E+03
     10.110  0.3546E+01  0.1403E+03
     10.342  0.4956E+01  0.1412E+03
     10.573  0.6880E+01  0.1426E+03
     10.805  0.7590E+01  0.1440E+03
     11.037  0.1012E+02  0.1463E+03
     11.268  0.1079E+02  0.1488E+03
     11.500  0.8478E+01  0.1508E+03
     11.732  0.2302E+01  0.1519E+03
     11.963  0.0000E+00  0.1520E+03
     12.195  0.0000E+00  0.1520E+03
     12.427  0.0000E+00  0.1520E+03
     12.658  0.0000E+00  0.1520E+03
     12.890  0.0000E+00  0.1520E+03
     13.122  0.0000E+00  0.1520E+03
     13.353  0.0000E+00  0.1520E+03
     13.585  0.0000E+00  0.1520E+03
     13.817  0.0000E+00  0.1520E+03
     14.048  0.0000E+00  0.1520E+03
     14.280  0.0000E+00  0.1520E+03
     14.512  0.0000E+00  0.1520E+03
     14.743  0.0000E+00  0.1520E+03
     14.975  0.0000E+00  0.1520E+03
