 running on  100 total cores
 distrk:  each k-point on  100 cores,    1 groups
 distr:  one band on   25 cores,    4 groups
 using from now: INCAR     
 vasp.5.4.4.18Apr17-6-g9f103f2a35 (build May 23 2017 16:08:52) complex          
  
 POSCAR found :  4 types and      75 ions
 scaLAPACK will be used

 ----------------------------------------------------------------------------- 
|                                                                             |
|           W    W    AA    RRRRR   N    N  II  N    N   GGGG   !!!           |
|           W    W   A  A   R    R  NN   N  II  NN   N  G    G  !!!           |
|           W    W  A    A  R    R  N N  N  II  N N  N  G       !!!           |
|           W WW W  AAAAAA  RRRRR   N  N N  II  N  N N  G  GGG   !            |
|           WW  WW  A    A  R   R   N   NN  II  N   NN  G    G                |
|           W    W  A    A  R    R  N    N  II  N    N   GGGG   !!!           |
|                                                                             |
|      For optimal performance we recommend to set                            |
|        NCORE= 4 - approx SQRT( number of cores)                             |
|      NCORE specifies how many cores store one orbital (NPAR=cpu/NCORE).     |
|      This setting can  greatly improve the performance of VASP for DFT.     |
|      The default,   NCORE=1            might be grossly inefficient         |
|      on modern multi-core architectures or massively parallel machines.     |
|      Do your own testing !!!!                                               |
|      Unfortunately you need to use the default for GW and RPA calculations. |
|      (for HF NCORE is supported but not extensively tested yet)             |
|                                                                             |
 ----------------------------------------------------------------------------- 


 ----------------------------------------------------------------------------- 
|                                                                             |
|  ADVICE TO THIS USER RUNNING 'VASP/VAMP'   (HEAR YOUR MASTER'S VOICE ...):  |
|                                                                             |
|      You have a (more or less) 'large supercell' and for larger cells       |
|      it might be more efficient to use real space projection opertators     |
|      So try LREAL= Auto  in the INCAR   file.                               |
|      Mind:          For very  accurate calculation you might also keep the  |
|      reciprocal projection scheme          (i.e. LREAL=.FALSE.)             |
|                                                                             |
 ----------------------------------------------------------------------------- 

 LDA part: xc-table for Pade appr. of Perdew
 POSCAR, INCAR and KPOINTS ok, starting setup
 FFT: planning ...
 WAVECAR not read
 entering main loop
       N       E                     dE             d eps       ncg     rms          rms(c)
DAV:   1     0.712517117878E+04    0.71252E+04   -0.31385E+05 11776   0.170E+03
DAV:   2     0.379317807867E+03   -0.67459E+04   -0.63884E+04 13368   0.559E+02
DAV:   3    -0.643635356530E+03   -0.10230E+04   -0.10059E+04 16136   0.204E+02
DAV:   4    -0.721574913254E+03   -0.77940E+02   -0.77145E+02 18784   0.589E+01
DAV:   5    -0.727450650429E+03   -0.58757E+01   -0.58203E+01 21296   0.126E+01    0.900E+01
DAV:   6    -0.610764265506E+03    0.11669E+03   -0.69700E+02 16632   0.569E+01    0.574E+01
DAV:   7    -0.618566557733E+03   -0.78023E+01   -0.15381E+02 17360   0.329E+01    0.412E+01
DAV:   8    -0.616879401870E+03    0.16872E+01   -0.46692E+01 17880   0.205E+01    0.255E+01
DAV:   9    -0.618030370538E+03   -0.11510E+01   -0.13065E+02 17104   0.229E+01    0.155E+01
DAV:  10    -0.611533558230E+03    0.64968E+01   -0.12605E+01 17176   0.964E+00    0.977E+00
DAV:  11    -0.608423511820E+03    0.31100E+01   -0.36734E+00 17896   0.602E+00    0.458E+00
DAV:  12    -0.608312277372E+03    0.11123E+00   -0.49948E+00 17016   0.464E+00    0.471E+00
DAV:  13    -0.607985597065E+03    0.32668E+00   -0.17052E+00 15696   0.256E+00    0.228E+00
DAV:  14    -0.607937434409E+03    0.48163E-01   -0.35644E-01 19632   0.111E+00    0.169E+00
DAV:  15    -0.607934368737E+03    0.30657E-02   -0.14903E-01 17056   0.806E-01    0.134E+00
DAV:  16    -0.607887204028E+03    0.47165E-01   -0.25038E-01 17632   0.897E-01    0.791E-01
DAV:  17    -0.607886634822E+03    0.56921E-03   -0.65343E-02 16456   0.499E-01    0.373E-01
DAV:  18    -0.607888820048E+03   -0.21852E-02   -0.34044E-02 17400   0.217E-01    0.349E-01
DAV:  19    -0.607890066786E+03   -0.12467E-02   -0.66566E-03 17264   0.139E-01    0.247E-01
DAV:  20    -0.607888242670E+03    0.18241E-02   -0.11934E-02 16584   0.879E-02    0.268E-01
DAV:  21    -0.607888315309E+03   -0.72639E-04   -0.21307E-03 17616   0.551E-02    0.204E-01
DAV:  22    -0.607888433977E+03   -0.11867E-03   -0.29675E-03 16424   0.313E-02    0.226E-01
DAV:  23    -0.607887820304E+03    0.61367E-03   -0.81049E-04 14608   0.308E-02    0.197E-01
DAV:  24    -0.607888173866E+03   -0.35356E-03   -0.41394E-03 11120   0.227E-02    0.234E-01
DAV:  25    -0.607887991695E+03    0.18217E-03   -0.15484E-04  8824   0.166E-02    0.204E-01
DAV:  26    -0.607888062103E+03   -0.70408E-04   -0.12184E-04  7056   0.856E-03    0.215E-01
DAV:  27    -0.607888199008E+03   -0.13691E-03   -0.26405E-03  8368   0.142E-02    0.214E-01
DAV:  28    -0.607888455258E+03   -0.25625E-03   -0.18760E-03  8592   0.175E-02    0.220E-01
DAV:  29    -0.607888332644E+03    0.12261E-03   -0.26120E-03  8608   0.158E-02    0.216E-01
DAV:  30    -0.607888404828E+03   -0.72184E-04   -0.55693E-04  8072   0.110E-02    0.204E-01
DAV:  31    -0.607888378489E+03    0.26339E-04   -0.22429E-03  7880   0.818E-03    0.215E-01
DAV:  32    -0.607888357692E+03    0.20797E-04   -0.98383E-04  7896   0.971E-03    0.209E-01
DAV:  33    -0.607888354407E+03    0.32846E-05   -0.14743E-03  7544   0.769E-03    0.205E-01
DAV:  34    -0.607888353906E+03    0.50137E-06   -0.67804E-06  7624   0.827E-03
   1 F= -.60788835E+03 E0= -.60788835E+03  d E =-.607888E+03
 curvature:   0.00 expect dE= 0.000E+00 dE for cont linesearch  0.000E+00
 trial: gam= 0.00000 g(F)=  0.754E+00 g(S)=  0.805E+01 ort = 0.000E+00 (trialstep = 0.100E+01)
 search vector abs. value=  0.880E+01
 bond charge predicted
       N       E                     dE             d eps       ncg     rms          rms(c)
DAV:   1    -0.665079785121E+03   -0.57191E+02   -0.18506E+03 15384   0.110E+02    0.664E+01
DAV:   2    -0.636427017126E+03    0.28653E+02   -0.28113E+02 16152   0.442E+01    0.300E+01
DAV:   3    -0.620607608336E+03    0.15819E+02   -0.78133E+01 18000   0.262E+01    0.227E+01
DAV:   4    -0.612135524202E+03    0.84721E+01   -0.82893E+01 17952   0.181E+01    0.151E+01
DAV:   5    -0.607719606291E+03    0.44159E+01   -0.12400E+01 17088   0.843E+00    0.124E+01
DAV:   6    -0.608370665561E+03   -0.65106E+00   -0.78703E+00 17448   0.652E+00    0.115E+01
DAV:   7    -0.608374887219E+03   -0.42217E-02   -0.81039E+00 17328   0.600E+00    0.795E+00
DAV:   8    -0.608128562834E+03    0.24632E+00   -0.45179E+00 18816   0.332E+00    0.518E+00
DAV:   9    -0.607978543081E+03    0.15002E+00   -0.24515E+00 18424   0.276E+00    0.281E+00
DAV:  10    -0.607878665697E+03    0.99877E-01   -0.58362E-01 17320   0.165E+00    0.178E+00
DAV:  11    -0.607855020325E+03    0.23645E-01   -0.25689E-01 17400   0.986E-01    0.126E+00
DAV:  12    -0.607843843449E+03    0.11177E-01   -0.13430E-01 17144   0.590E-01    0.980E-01
DAV:  13    -0.607846689347E+03   -0.28459E-02   -0.81094E-02 17648   0.390E-01    0.540E-01
DAV:  14    -0.607840068458E+03    0.66209E-02   -0.17741E-02 16936   0.235E-01    0.313E-01
DAV:  15    -0.607842363164E+03   -0.22947E-02   -0.10984E-02 18912   0.178E-01    0.156E-01
DAV:  16    -0.607840357663E+03    0.20055E-02   -0.11902E-03 18568   0.773E-02    0.693E-02
DAV:  17    -0.607840966575E+03   -0.60891E-03   -0.31127E-04 16864   0.360E-02    0.607E-02
DAV:  18    -0.607839859948E+03    0.11066E-02   -0.87644E-05 13720   0.226E-02    0.305E-02
DAV:  19    -0.607840148273E+03   -0.28832E-03   -0.69685E-05 10000   0.158E-02    0.204E-02
DAV:  20    -0.607839749392E+03    0.39888E-03   -0.54338E-05  7112   0.127E-02    0.141E-02
DAV:  21    -0.607839879196E+03   -0.12980E-03   -0.19659E-05  7096   0.898E-03    0.635E-03
DAV:  22    -0.607839850211E+03    0.28986E-04   -0.41045E-06  6984   0.445E-03    0.512E-03
DAV:  23    -0.607839833830E+03    0.16381E-04   -0.17377E-06  6928   0.388E-03    0.443E-03
DAV:  24    -0.607839796845E+03    0.36984E-04   -0.17926E-06  6760   0.303E-03    0.390E-03
DAV:  25    -0.607839810000E+03   -0.13155E-04   -0.16024E-06  6736   0.205E-03    0.246E-03
DAV:  26    -0.607839809719E+03    0.28148E-06   -0.39076E-07  6720   0.169E-03
   2 F= -.60783981E+03 E0= -.60783981E+03  d E =0.485442E-01
 trial-energy change:    0.048544  1 .order   -0.308681   -8.804901    8.187539
 step:   0.4867(harm=  0.5182)  dis= 0.02234  next Energy=  -609.989653 (dE=-0.210E+01)
 bond charge predicted
       N       E                     dE             d eps       ncg     rms          rms(c)
DAV:   1    -0.625541399503E+03   -0.17702E+02   -0.49420E+02 15056   0.552E+01    0.330E+01
DAV:   2    -0.613472959014E+03    0.12068E+02   -0.56678E+01 14504   0.171E+01    0.133E+01
DAV:   3    -0.620122335274E+03   -0.66494E+01   -0.37751E+01 17064   0.186E+01    0.145E+01
DAV:   4    -0.610967097360E+03    0.91552E+01   -0.76632E+00 17512   0.920E+00    0.724E+00
DAV:   5    -0.609954383888E+03    0.10127E+01   -0.30998E+00 18488   0.396E+00    0.387E+00
DAV:   6    -0.609945180599E+03    0.92033E-02   -0.36744E+00 19312   0.266E+00    0.327E+00
DAV:   7    -0.609920225974E+03    0.24955E-01   -0.21595E+00 17000   0.236E+00    0.238E+00
DAV:   8    -0.609898912436E+03    0.21314E-01   -0.39464E-01 17608   0.106E+00    0.170E+00
DAV:   9    -0.609935836218E+03   -0.36924E-01   -0.24906E-01 19808   0.794E-01    0.141E+00
DAV:  10    -0.609972721299E+03   -0.36885E-01   -0.42279E-01 18280   0.874E-01    0.157E+00
DAV:  11    -0.609952275317E+03    0.20446E-01   -0.10070E-01 18992   0.579E-01    0.867E-01
DAV:  12    -0.609957531737E+03   -0.52564E-02   -0.18984E-01 19472   0.554E-01    0.444E-01
DAV:  13    -0.609952761218E+03    0.47705E-02   -0.11812E-02 15736   0.194E-01    0.278E-01
DAV:  14    -0.609952138640E+03    0.62258E-03   -0.18271E-03 20184   0.937E-02    0.208E-01
DAV:  15    -0.609949791139E+03    0.23475E-02   -0.36507E-03 17664   0.832E-02    0.121E-01
DAV:  16    -0.609948695479E+03    0.10957E-02   -0.38736E-03 17600   0.630E-02    0.311E-01
DAV:  17    -0.609948862847E+03   -0.16737E-03   -0.48823E-03 15280   0.372E-02    0.956E-02
DAV:  18    -0.609949021192E+03   -0.15835E-03   -0.20570E-04 12344   0.227E-02    0.850E-02
DAV:  19    -0.609949190083E+03   -0.16889E-03   -0.36389E-04 12704   0.205E-02    0.666E-02
DAV:  20    -0.609949799925E+03   -0.60984E-03   -0.76585E-04 11760   0.238E-02    0.200E-01
DAV:  21    -0.609949635249E+03    0.16468E-03   -0.18808E-03  9824   0.150E-02    0.538E-02
DAV:  22    -0.609949698220E+03   -0.62972E-04   -0.89734E-06  6960   0.787E-03    0.472E-02
DAV:  23    -0.609949604589E+03    0.93631E-04   -0.21389E-05  6808   0.649E-03    0.515E-02
DAV:  24    -0.609949660502E+03   -0.55913E-04   -0.25224E-06  6680   0.405E-03    0.497E-02
DAV:  25    -0.609949626243E+03    0.34260E-04   -0.10952E-06  6680   0.302E-03    0.484E-02
DAV:  26    -0.609949725143E+03   -0.98900E-04   -0.19422E-05  6968   0.506E-03    0.407E-02
DAV:  27    -0.609949715895E+03    0.92475E-05   -0.10100E-06  6664   0.222E-03
   3 F= -.60994972E+03 E0= -.60994972E+03  d E =-.206136E+01
 curvature:  -0.26 expect dE=-0.952E-01 dE for cont linesearch -0.398E-03
 ZBRENT: interpolating
 opt :   0.4803  next Energy=  -609.950086 (dE=-0.206E+01)
 bond charge predicted
       N       E                     dE             d eps       ncg     rms          rms(c)
DAV:   1    -0.609952597421E+03   -0.28723E-02   -0.76268E-02 15376   0.696E-01    0.401E-01
DAV:   2    -0.609950670072E+03    0.19273E-02   -0.14785E-02 15000   0.237E-01    0.256E-01
DAV:   3    -0.609949148374E+03    0.15217E-02   -0.40603E-02 16024   0.268E-01    0.570E-01
DAV:   4    -0.609950864919E+03   -0.17165E-02   -0.30429E-02 16568   0.190E-01    0.201E-01
DAV:   5    -0.609950692162E+03    0.17276E-03   -0.21206E-03 17248   0.942E-02    0.977E-02
DAV:   6    -0.609949109123E+03    0.15830E-02   -0.10017E-03 17120   0.507E-02    0.900E-02
DAV:   7    -0.609950069617E+03   -0.96049E-03   -0.47990E-04 14296   0.311E-02    0.110E-01
DAV:   8    -0.609950142538E+03   -0.72921E-04   -0.85330E-04 11504   0.147E-02    0.680E-02
DAV:   9    -0.609950107759E+03    0.34778E-04   -0.24927E-04  9352   0.134E-02    0.809E-02
DAV:  10    -0.609950017866E+03    0.89894E-04   -0.86840E-04  8592   0.181E-02    0.672E-02
DAV:  11    -0.609949866821E+03    0.15104E-03   -0.49092E-05 10656   0.172E-02    0.570E-02
DAV:  12    -0.609950118210E+03   -0.25139E-03   -0.45010E-05  9976   0.160E-02    0.452E-02
DAV:  13    -0.609950013272E+03    0.10494E-03   -0.26355E-05  6848   0.789E-03    0.436E-02
DAV:  14    -0.609950053390E+03   -0.40118E-04   -0.37740E-04  7000   0.766E-03    0.170E-01
DAV:  15    -0.609950017824E+03    0.35567E-04   -0.21173E-04  6896   0.579E-03    0.354E-02
DAV:  16    -0.609950083070E+03   -0.65246E-04   -0.69568E-04  6744   0.637E-03    0.216E-01
DAV:  17    -0.609950060101E+03    0.22969E-04   -0.19869E-04  6968   0.464E-03    0.656E-02
DAV:  18    -0.609950057544E+03    0.25574E-05   -0.23136E-06  6864   0.437E-03
   4 F= -.60995006E+03 E0= -.60995006E+03  d E =-.206170E+01
 curvature:  -0.24 expect dE=-0.861E-01 dE for cont linesearch -0.316E-05
 trial: gam= 0.04195 g(F)=  0.330E+00 g(S)=  0.282E-01 ort =-0.108E-01 (trialstep = 0.896E+00)
 search vector abs. value=  0.373E+00
 bond charge predicted
       N       E                     dE             d eps       ncg     rms          rms(c)
DAV:   1    -0.610168017815E+03   -0.21796E+00   -0.36136E+01 12120   0.885E+00    0.232E+00
DAV:   2    -0.610239058627E+03   -0.71041E-01   -0.12407E+00 15176   0.214E+00    0.202E+00
DAV:   3    -0.610224078612E+03    0.14980E-01   -0.45469E-01 17480   0.124E+00    0.141E+00
DAV:   4    -0.610212070844E+03    0.12008E-01   -0.18593E-01 16248   0.712E-01    0.884E-01
DAV:   5    -0.610231757361E+03   -0.19687E-01   -0.12389E-01 16512   0.621E-01    0.919E-01
DAV:   6    -0.610214651606E+03    0.17106E-01   -0.17387E-01 16720   0.532E-01    0.696E-01
DAV:   7    -0.610208892831E+03    0.57588E-02   -0.73449E-02 16544   0.342E-01    0.253E-01
DAV:   8    -0.610209155837E+03   -0.26301E-03   -0.47098E-03 19168   0.136E-01    0.184E-01
DAV:   9    -0.610208518921E+03    0.63692E-03   -0.57593E-03 17272   0.906E-02    0.140E-01
DAV:  10    -0.610208664670E+03   -0.14575E-03   -0.12666E-03 16360   0.389E-02    0.186E-01
DAV:  11    -0.610208634402E+03    0.30269E-04   -0.48804E-03 14424   0.369E-02    0.137E-01
DAV:  12    -0.610208965141E+03   -0.33074E-03   -0.16191E-03 12864   0.238E-02    0.120E-01
DAV:  13    -0.610208810844E+03    0.15430E-03   -0.44413E-05 11344   0.223E-02    0.922E-02
DAV:  14    -0.610208740598E+03    0.70246E-04   -0.31688E-04  8352   0.106E-02    0.715E-02
DAV:  15    -0.610208725204E+03    0.15393E-04   -0.39142E-05  7272   0.670E-03    0.413E-02
DAV:  16    -0.610208729840E+03   -0.46359E-05   -0.20999E-06  6728   0.400E-03
   5 F= -.61020873E+03 E0= -.61020873E+03  d E =-.258672E+00
 trial-energy change:   -0.258672  1 .order   -0.263624   -0.320917   -0.206331
 step:   2.5096(harm=  2.5096)  dis= 0.09881  next Energy=  -610.399450 (dE=-0.449E+00)
 bond charge predicted
       N       E                     dE             d eps       ncg     rms          rms(c)
DAV:   1    -0.610250687835E+03   -0.41963E-01   -0.11694E+02 11976   0.160E+01    0.428E+00
DAV:   2    -0.610495265517E+03   -0.24458E+00   -0.38709E+00 15120   0.389E+00    0.387E+00
DAV:   3    -0.610599575218E+03   -0.10431E+00   -0.23278E+00 17016   0.256E+00    0.341E+00
DAV:   4    -0.610472116824E+03    0.12746E+00   -0.19917E+00 16680   0.214E+00    0.216E+00
DAV:   5    -0.610402716896E+03    0.69400E-01   -0.38924E-01 16896   0.127E+00    0.130E+00
DAV:   6    -0.610408851220E+03   -0.61343E-02   -0.33212E-01 18160   0.913E-01    0.128E+00
DAV:   7    -0.610394677136E+03    0.14174E-01   -0.75475E-02 17240   0.597E-01    0.396E-01
DAV:   8    -0.610393203768E+03    0.14734E-02   -0.11878E-02 17872   0.209E-01    0.331E-01
DAV:   9    -0.610392779840E+03    0.42393E-03   -0.16440E-02 18440   0.989E-02    0.248E-01
DAV:  10    -0.610393065373E+03   -0.28553E-03   -0.26975E-03 16960   0.841E-02    0.235E-01
DAV:  11    -0.610392913851E+03    0.15152E-03   -0.58399E-03 16488   0.574E-02    0.168E-01
DAV:  12    -0.610392996388E+03   -0.82537E-04   -0.28911E-04 14688   0.287E-02    0.155E-01
DAV:  13    -0.610393006708E+03   -0.10319E-04   -0.54523E-05 12072   0.198E-02    0.678E-02
DAV:  14    -0.610393003795E+03    0.29129E-05   -0.18684E-04  7792   0.117E-02    0.147E-01
DAV:  15    -0.610393032291E+03   -0.28496E-04   -0.30912E-03 11104   0.222E-02    0.263E-01
DAV:  16    -0.610393048517E+03   -0.16226E-04   -0.65865E-04  9040   0.116E-02    0.451E-02
DAV:  17    -0.610393014153E+03    0.34364E-04   -0.29115E-04  6840   0.640E-03    0.253E-01
DAV:  18    -0.610392994241E+03    0.19912E-04   -0.23238E-03  8928   0.120E-02    0.150E-01
DAV:  19    -0.610393025832E+03   -0.31592E-04   -0.63974E-04  8080   0.843E-03    0.444E-02
DAV:  20    -0.610392996605E+03    0.29227E-04   -0.40868E-05  6824   0.505E-03    0.406E-02
DAV:  21    -0.610392999253E+03   -0.26475E-05   -0.14734E-06  6656   0.294E-03
   6 F= -.61039300E+03 E0= -.61039300E+03  d E =-.442942E+00
 curvature:  -1.31 expect dE=-0.258E+00 dE for cont linesearch -0.111E-03
 trial: gam= 0.59146 g(F)=  0.150E+00 g(S)=  0.475E-01 ort =-0.564E-02 (trialstep = 0.122E+01)
 search vector abs. value=  0.321E+00
 bond charge predicted
       N       E                     dE             d eps       ncg     rms          rms(c)
DAV:   1    -0.610386137267E+03    0.68593E-02   -0.77703E+01 11896   0.165E+01    0.315E+00
DAV:   2    -0.610526958602E+03   -0.14082E+00   -0.30472E+00 14504   0.406E+00    0.265E+00
DAV:   3    -0.610533243201E+03   -0.62846E-02   -0.61359E-01 18040   0.159E+00    0.205E+00
DAV:   4    -0.610503920222E+03    0.29323E-01   -0.44086E-01 15976   0.120E+00    0.156E+00
DAV:   5    -0.610545772089E+03   -0.41852E-01   -0.60046E-01 16912   0.117E+00    0.195E+00
DAV:   6    -0.610487083561E+03    0.58689E-01   -0.92951E-01 16744   0.119E+00    0.117E+00
DAV:   7    -0.610475405417E+03    0.11678E-01   -0.59708E-02 17856   0.568E-01    0.350E-01
DAV:   8    -0.610473383358E+03    0.20221E-02   -0.10066E-02 18400   0.181E-01    0.253E-01
DAV:   9    -0.610473065716E+03    0.31764E-03   -0.34366E-03 16856   0.116E-01    0.183E-01
DAV:  10    -0.610473342734E+03   -0.27702E-03   -0.19377E-03 17072   0.977E-02    0.112E-01
DAV:  11    -0.610472705023E+03    0.63771E-03   -0.29629E-03 17400   0.779E-02    0.134E-01
DAV:  12    -0.610472852953E+03   -0.14793E-03   -0.19420E-03 16072   0.470E-02    0.727E-02
DAV:  13    -0.610472734611E+03    0.11834E-03   -0.47871E-04 12736   0.219E-02    0.103E-01
DAV:  14    -0.610472816530E+03   -0.81919E-04   -0.78054E-04  8312   0.168E-02    0.527E-02
DAV:  15    -0.610472760869E+03    0.55661E-04   -0.32792E-05  7160   0.895E-03    0.161E-02
DAV:  16    -0.610472738419E+03    0.22450E-04   -0.81212E-06  6952   0.645E-03    0.904E-03
DAV:  17    -0.610472748487E+03   -0.10068E-04   -0.16625E-05  6704   0.559E-03    0.133E-02
DAV:  18    -0.610472742893E+03    0.55939E-05   -0.14217E-06  6704   0.340E-03
   7 F= -.61047274E+03 E0= -.61047274E+03  d E =-.797436E-01
 trial-energy change:   -0.079744  1 .order   -0.082378   -0.236785    0.072030
 step:   0.9230(harm=  0.9345)  dis= 0.03034  next Energy=  -610.481520 (dE=-0.885E-01)
 bond charge predicted
       N       E                     dE             d eps       ncg     rms          rms(c)
DAV:   1    -0.610474449290E+03   -0.17008E-02   -0.45668E+00 11888   0.399E+00    0.775E-01
DAV:   2    -0.610486112941E+03   -0.11664E-01   -0.17744E-01 14512   0.968E-01    0.654E-01
DAV:   3    -0.610486677145E+03   -0.56420E-03   -0.65990E-02 16880   0.468E-01    0.724E-01
DAV:   4    -0.610481918719E+03    0.47584E-02   -0.64869E-02 16000   0.350E-01    0.397E-01
DAV:   5    -0.610484630876E+03   -0.27122E-02   -0.16537E-02 17264   0.248E-01    0.423E-01
DAV:   6    -0.610485100010E+03   -0.46913E-03   -0.44788E-02 17176   0.231E-01    0.405E-01
DAV:   7    -0.610481975003E+03    0.31250E-02   -0.19920E-02 16136   0.179E-01    0.179E-01
DAV:   8    -0.610482487344E+03   -0.51234E-03   -0.18007E-03 18016   0.642E-02    0.145E-01
DAV:   9    -0.610482487994E+03   -0.64996E-06   -0.19029E-04 17016   0.411E-02    0.559E-02
DAV:  10    -0.610482550949E+03   -0.62955E-04   -0.48104E-04 12200   0.232E-02    0.117E-01
DAV:  11    -0.610482646564E+03   -0.95615E-04   -0.30672E-04 12136   0.215E-02    0.130E-01
DAV:  12    -0.610482789985E+03   -0.14342E-03   -0.20257E-03 12328   0.285E-02    0.808E-02
DAV:  13    -0.610482705828E+03    0.84157E-04   -0.13024E-05  8224   0.108E-02    0.678E-02
DAV:  14    -0.610482659593E+03    0.46235E-04   -0.22103E-05  7144   0.830E-03    0.549E-02
DAV:  15    -0.610482638102E+03    0.21491E-04   -0.85989E-06  6864   0.624E-03    0.461E-02
DAV:  16    -0.610482645439E+03   -0.73368E-05   -0.16446E-05  6640   0.457E-03
   8 F= -.61048265E+03 E0= -.61048265E+03  d E =-.896462E-01
 curvature:  -0.77 expect dE=-0.176E-01 dE for cont linesearch -0.280E-05
 trial: gam= 0.07966 g(F)=  0.170E-01 g(S)=  0.574E-02 ort =-0.108E-02 (trialstep = 0.116E+01)
 search vector abs. value=  0.247E-01
 bond charge predicted
       N       E                     dE             d eps       ncg     rms          rms(c)
DAV:   1    -0.610499611597E+03   -0.16973E-01   -0.65043E+00 12288   0.592E+00    0.156E+00
DAV:   2    -0.610502490276E+03   -0.28787E-02   -0.48694E-01 13712   0.154E+00    0.962E-01
DAV:   3    -0.610504022487E+03   -0.15322E-02   -0.27819E-01 17216   0.871E-01    0.126E+00
DAV:   4    -0.610488716176E+03    0.15306E-01   -0.64663E-02 16432   0.616E-01    0.369E-01
DAV:   5    -0.610496420203E+03   -0.77040E-02   -0.53257E-02 17784   0.392E-01    0.596E-01
DAV:   6    -0.610490574327E+03    0.58459E-02   -0.51406E-02 17160   0.331E-01    0.323E-01
DAV:   7    -0.610488274645E+03    0.22997E-02   -0.56897E-03 18008   0.171E-01    0.199E-01
DAV:   8    -0.610488449936E+03   -0.17529E-03   -0.28300E-03 18704   0.868E-02    0.154E-01
DAV:   9    -0.610488994815E+03   -0.54488E-03   -0.19244E-03 17880   0.543E-02    0.210E-01
DAV:  10    -0.610488994392E+03    0.42362E-06   -0.98348E-03 17824   0.622E-02    0.150E-01
DAV:  11    -0.610488753415E+03    0.24098E-03   -0.13320E-04 16544   0.398E-02    0.108E-01
DAV:  12    -0.610488743988E+03    0.94269E-05   -0.39089E-05 13432   0.227E-02
   9 F= -.61048874E+03 E0= -.61048874E+03  d E =-.609855E-02
 trial-energy change:   -0.006099  1 .order   -0.006474   -0.026322    0.013374
 step:   0.7540(harm=  0.7689)  dis= 0.00665  next Energy=  -610.491099 (dE=-0.845E-02)
 bond charge predicted
       N       E                     dE             d eps       ncg     rms          rms(c)
DAV:   1    -0.610492036330E+03   -0.32829E-02   -0.79708E-01 12336   0.207E+00    0.551E-01
DAV:   2    -0.610491749268E+03    0.28706E-03   -0.65282E-02 14040   0.554E-01    0.373E-01
DAV:   3    -0.610494768734E+03   -0.30195E-02   -0.64147E-02 16816   0.364E-01    0.653E-01
DAV:   4    -0.610491502449E+03    0.32663E-02   -0.27741E-02 16112   0.242E-01    0.201E-01
DAV:   5    -0.610491388424E+03    0.11403E-03   -0.86595E-03 17552   0.138E-01    0.353E-01
DAV:   6    -0.610490782943E+03    0.60548E-03   -0.13030E-02 17040   0.113E-01    0.145E-01
DAV:   7    -0.610491150350E+03   -0.36741E-03   -0.39533E-04 17096   0.654E-02    0.117E-01
DAV:   8    -0.610491226779E+03   -0.76429E-04   -0.19483E-04 15608   0.313E-02    0.966E-02
DAV:   9    -0.610491162892E+03    0.63888E-04   -0.39633E-04 10432   0.199E-02    0.549E-02
DAV:  10    -0.610491184939E+03   -0.22047E-04   -0.46366E-04 11144   0.187E-02    0.959E-02
DAV:  11    -0.610491124261E+03    0.60678E-04   -0.64326E-04 12040   0.205E-02    0.828E-02
DAV:  12    -0.610491215846E+03   -0.91585E-04   -0.46369E-04 10512   0.184E-02    0.808E-02
DAV:  13    -0.610491247869E+03   -0.32022E-04   -0.55464E-04  7512   0.106E-02    0.845E-02
DAV:  14    -0.610491228202E+03    0.19666E-04   -0.45079E-05  6744   0.592E-03    0.249E-02
DAV:  15    -0.610491227120E+03    0.10820E-05   -0.25844E-05  6496   0.480E-03
  10 F= -.61049123E+03 E0= -.61049123E+03  d E =-.858168E-02
 curvature:  -0.42 expect dE=-0.169E-02 dE for cont linesearch -0.964E-06
 trial: gam= 0.16457 g(F)=  0.349E-02 g(S)=  0.565E-03 ort = 0.239E-03 (trialstep = 0.108E+01)
 search vector abs. value=  0.481E-02
 bond charge predicted
       N       E                     dE             d eps       ncg     rms          rms(c)
DAV:   1    -0.610491176343E+03    0.51860E-04   -0.95775E-01 12536   0.230E+00    0.512E-01
DAV:   2    -0.610500453235E+03   -0.92769E-02   -0.21941E-01 15400   0.722E-01    0.917E-01
DAV:   3    -0.610494145308E+03    0.63079E-02   -0.40381E-02 15824   0.466E-01    0.293E-01
DAV:   4    -0.610495787684E+03   -0.16424E-02   -0.10836E-02 17168   0.221E-01    0.369E-01
DAV:   5    -0.610494373185E+03    0.14145E-02   -0.15542E-02 16040   0.154E-01    0.220E-01
DAV:   6    -0.610494232080E+03    0.14110E-03   -0.38374E-03 17648   0.130E-01    0.178E-01
DAV:   7    -0.610493836973E+03    0.39511E-03   -0.16697E-03 17304   0.872E-02    0.121E-01
DAV:   8    -0.610494038304E+03   -0.20133E-03   -0.26943E-04 16408   0.306E-02    0.548E-02
DAV:   9    -0.610494140331E+03   -0.10203E-03   -0.42747E-04 12064   0.210E-02    0.553E-02
DAV:  10    -0.610494035672E+03    0.10466E-03   -0.48880E-04 10712   0.177E-02    0.994E-02
DAV:  11    -0.610494051311E+03   -0.15639E-04   -0.92781E-04  9984   0.184E-02    0.163E-01
DAV:  12    -0.610494038226E+03    0.13085E-04   -0.14641E-03  9000   0.147E-02    0.105E-01
DAV:  13    -0.610494087821E+03   -0.49595E-04   -0.59924E-04  7856   0.109E-02    0.515E-02
DAV:  14    -0.610494099424E+03   -0.11603E-04   -0.12907E-05  6904   0.606E-03    0.605E-02
DAV:  15    -0.610494097941E+03    0.14830E-05   -0.17566E-05  6544   0.453E-03
  11 F= -.61049410E+03 E0= -.61049410E+03  d E =-.287082E-02
 trial-energy change:   -0.002871  1 .order   -0.003277   -0.004420   -0.002135
 step:   2.0859(harm=  2.0859)  dis= 0.00800  next Energy=  -610.495501 (dE=-0.427E-02)
 bond charge predicted
       N       E                     dE             d eps       ncg     rms          rms(c)
DAV:   1    -0.610492132789E+03    0.19666E-02   -0.83629E-01 12552   0.215E+00    0.478E-01
DAV:   2    -0.610500889368E+03   -0.87566E-02   -0.19732E-01 15256   0.679E-01    0.874E-01
DAV:   3    -0.610494875497E+03    0.60139E-02   -0.32350E-02 16000   0.439E-01    0.281E-01
DAV:   4    -0.610495858594E+03   -0.98310E-03   -0.14667E-02 17352   0.199E-01    0.343E-01
DAV:   5    -0.610494967450E+03    0.89114E-03   -0.10206E-02 15936   0.143E-01    0.211E-01
DAV:   6    -0.610495084043E+03   -0.11659E-03   -0.37063E-03 17040   0.121E-01    0.169E-01
DAV:   7    -0.610494637959E+03    0.44608E-03   -0.18113E-03 17368   0.839E-02    0.132E-01
DAV:   8    -0.610494720337E+03   -0.82378E-04   -0.43229E-04 16696   0.292E-02    0.674E-02
DAV:   9    -0.610494722083E+03   -0.17459E-05   -0.15078E-03 10592   0.207E-02    0.150E-01
DAV:  10    -0.610494773362E+03   -0.51279E-04   -0.24916E-03 11248   0.255E-02    0.276E-01
DAV:  11    -0.610494771406E+03    0.19563E-05   -0.15670E-03  8688   0.138E-02    0.102E-01
DAV:  12    -0.610494681400E+03    0.90006E-04   -0.33869E-04  8640   0.130E-02    0.464E-02
DAV:  13    -0.610494744729E+03   -0.63329E-04   -0.11246E-04  8080   0.139E-02    0.134E-01
DAV:  14    -0.610494754914E+03   -0.10185E-04   -0.44170E-04  6944   0.860E-03    0.243E-02
DAV:  15    -0.610494744190E+03    0.10724E-04   -0.43250E-06  6720   0.597E-03    0.213E-02
DAV:  16    -0.610494744581E+03   -0.39051E-06   -0.22263E-06  6464   0.403E-03
  12 F= -.61049474E+03 E0= -.61049474E+03  d E =-.351746E-02
 curvature:  -1.22 expect dE=-0.583E-02 dE for cont linesearch -0.162E-06
 trial: gam= 1.19431 g(F)=  0.260E-02 g(S)=  0.217E-02 ort =-0.252E-04 (trialstep = 0.532E+00)
 search vector abs. value=  0.116E-01
 bond charge predicted
       N       E                     dE             d eps       ncg     rms          rms(c)
DAV:   1    -0.610495147212E+03   -0.40302E-03   -0.54295E-01 12512   0.168E+00    0.337E-01
DAV:   2    -0.610499732728E+03   -0.45855E-02   -0.83656E-02 14088   0.451E-01    0.596E-01
DAV:   3    -0.610496923176E+03    0.28096E-02   -0.27786E-02 15728   0.266E-01    0.246E-01
DAV:   4    -0.610496287901E+03    0.63527E-03   -0.46665E-03 16944   0.126E-01    0.227E-01
DAV:   5    -0.610496854201E+03   -0.56630E-03   -0.46879E-03 16416   0.993E-02    0.157E-01
DAV:   6    -0.610496931156E+03   -0.76955E-04   -0.25879E-03 18128   0.778E-02    0.113E-01
DAV:   7    -0.610496513859E+03    0.41730E-03   -0.48077E-04 16336   0.549E-02    0.455E-02
DAV:   8    -0.610496525436E+03   -0.11577E-04   -0.71420E-04 13272   0.206E-02    0.120E-01
DAV:   9    -0.610496556149E+03   -0.30712E-04   -0.11405E-03 11648   0.190E-02    0.177E-01
DAV:  10    -0.610496473244E+03    0.82905E-04   -0.18131E-03  8608   0.138E-02    0.110E-01
DAV:  11    -0.610496518539E+03   -0.45294E-04   -0.21785E-04  8128   0.139E-02    0.320E-02
DAV:  12    -0.610496489594E+03    0.28945E-04   -0.95440E-05  7608   0.119E-02    0.270E-02
DAV:  13    -0.610496476389E+03    0.13204E-04   -0.81317E-05  7144   0.113E-02    0.102E-01
DAV:  14    -0.610496479367E+03   -0.29775E-05   -0.11117E-04  6576   0.551E-03    0.173E-02
DAV:  15    -0.610496470142E+03    0.92253E-05   -0.28826E-06  6384   0.463E-03
  13 F= -.61049647E+03 E0= -.61049647E+03  d E =-.172556E-02
 trial-energy change:   -0.001726  1 .order   -0.002059   -0.002520   -0.001597
 step:   1.4528(harm=  1.4528)  dis= 0.00862  next Energy=  -610.498185 (dE=-0.344E-02)
 bond charge predicted
       N       E                     dE             d eps       ncg     rms          rms(c)
DAV:   1    -0.610493920220E+03    0.25591E-02   -0.16257E+00 12504   0.292E+00    0.553E-01
DAV:   2    -0.610501415956E+03   -0.74957E-02   -0.12693E-01 13392   0.704E-01    0.618E-01
DAV:   3    -0.610498306135E+03    0.31098E-02   -0.77548E-02 17160   0.372E-01    0.443E-01
DAV:   4    -0.610497299300E+03    0.10068E-02   -0.88231E-03 16896   0.220E-01    0.245E-01
DAV:   5    -0.610498297846E+03   -0.99855E-03   -0.10335E-02 17040   0.162E-01    0.236E-01
DAV:   6    -0.610498010134E+03    0.28771E-03   -0.27964E-03 17536   0.115E-01    0.121E-01
DAV:   7    -0.610497586957E+03    0.42318E-03   -0.11558E-03 16936   0.755E-02    0.836E-02
DAV:   8    -0.610497523315E+03    0.63643E-04   -0.57958E-04 16136   0.393E-02    0.990E-02
DAV:   9    -0.610497636359E+03   -0.11304E-03   -0.54622E-04 12880   0.248E-02    0.500E-02
DAV:  10    -0.610497658362E+03   -0.22003E-04   -0.44648E-04  9584   0.169E-02    0.929E-02
DAV:  11    -0.610497619532E+03    0.38830E-04   -0.10067E-03 10528   0.207E-02    0.956E-02
DAV:  12    -0.610497615225E+03    0.43069E-05   -0.46796E-05  8992   0.174E-02
  14 F= -.61049762E+03 E0= -.61049762E+03  d E =-.287064E-02
 curvature:  -1.77 expect dE=-0.539E-02 dE for cont linesearch -0.327E-05
 trial: gam= 0.56718 g(F)=  0.203E-02 g(S)=  0.101E-02 ort = 0.146E-03 (trialstep = 0.716E+00)
 search vector abs. value=  0.693E-02
 bond charge predicted
       N       E                     dE             d eps       ncg     rms          rms(c)
DAV:   1    -0.610498517086E+03   -0.89755E-03   -0.70669E-01 11952   0.170E+00    0.330E-01
DAV:   2    -0.610501122126E+03   -0.26050E-02   -0.59111E-02 14696   0.429E-01    0.569E-01
DAV:   3    -0.610498823092E+03    0.22990E-02   -0.39532E-02 16552   0.250E-01    0.250E-01
DAV:   4    -0.610499741883E+03   -0.91879E-03   -0.29035E-03 17504   0.131E-01    0.185E-01
DAV:   5    -0.610499064935E+03    0.67695E-03   -0.44524E-03 17000   0.115E-01    0.149E-01
DAV:   6    -0.610498623414E+03    0.44152E-03   -0.10084E-03 16864   0.817E-02    0.896E-02
DAV:   7    -0.610498811338E+03   -0.18792E-03   -0.95664E-04 16440   0.442E-02    0.789E-02
DAV:   8    -0.610498934725E+03   -0.12339E-03   -0.51719E-04 14456   0.262E-02    0.672E-02
DAV:   9    -0.610498770025E+03    0.16470E-03   -0.50327E-04  9600   0.161E-02    0.681E-02
DAV:  10    -0.610498907894E+03   -0.13787E-03   -0.82232E-04  8992   0.167E-02    0.876E-02
DAV:  11    -0.610498876555E+03    0.31339E-04   -0.68663E-05  7960   0.124E-02    0.402E-02
DAV:  12    -0.610498839507E+03    0.37048E-04   -0.12048E-04  7480   0.838E-03    0.615E-02
DAV:  13    -0.610498865058E+03   -0.25551E-04   -0.73986E-05  7112   0.755E-03    0.344E-02
DAV:  14    -0.610498852077E+03    0.12981E-04   -0.60854E-06  6400   0.435E-03    0.194E-02
DAV:  15    -0.610498839608E+03    0.12469E-04   -0.77906E-05  6336   0.394E-03    0.620E-02
DAV:  16    -0.610498864085E+03   -0.24477E-04   -0.11286E-04  6320   0.383E-03    0.337E-02
DAV:  17    -0.610498845784E+03    0.18301E-04   -0.39934E-05  6288   0.285E-03    0.579E-02
DAV:  18    -0.610498861458E+03   -0.15674E-04   -0.93129E-05  6272   0.252E-03    0.333E-02
DAV:  19    -0.610498846954E+03    0.14505E-04   -0.16417E-05  6272   0.202E-03    0.522E-02
DAV:  20    -0.610498860730E+03   -0.13777E-04   -0.86857E-05  6272   0.187E-03    0.332E-02
DAV:  21    -0.610498848180E+03    0.12550E-04   -0.51810E-06  6272   0.163E-03    0.209E-02
DAV:  22    -0.610498854421E+03   -0.62410E-05   -0.26546E-05  6272   0.118E-03
  15 F= -.61049885E+03 E0= -.61049885E+03  d E =-.123920E-02
 trial-energy change:   -0.001239  1 .order   -0.001572   -0.002237   -0.000907
 step:   1.2050(harm=  1.2050)  dis= 0.00434  next Energy=  -610.499497 (dE=-0.188E-02)
 bond charge predicted
       N       E                     dE             d eps       ncg     rms          rms(c)
DAV:   1    -0.610498837828E+03    0.10353E-04   -0.32967E-01 11936   0.116E+00    0.230E-01
DAV:   2    -0.610500386839E+03   -0.15490E-02   -0.33445E-02 14640   0.303E-01    0.522E-01
DAV:   3    -0.610498736616E+03    0.16502E-02   -0.29494E-02 16568   0.176E-01    0.182E-01
DAV:   4    -0.610499636166E+03   -0.89955E-03   -0.23265E-03 17816   0.114E-01    0.157E-01
DAV:   5    -0.610499063552E+03    0.57261E-03   -0.22358E-03 16592   0.921E-02    0.959E-02
DAV:   6    -0.610498836369E+03    0.22718E-03   -0.66100E-04 16360   0.524E-02    0.917E-02
DAV:   7    -0.610498910110E+03   -0.73741E-04   -0.97109E-04 16888   0.430E-02    0.865E-02
DAV:   8    -0.610498904904E+03    0.52057E-05   -0.47372E-04 13336   0.286E-02    0.519E-02
DAV:   9    -0.610498830360E+03    0.74545E-04   -0.31452E-04  7928   0.111E-02    0.585E-02
DAV:  10    -0.610498976153E+03   -0.14579E-03   -0.18603E-04  8752   0.124E-02    0.501E-02
DAV:  11    -0.610498885498E+03    0.90655E-04   -0.81952E-06  7240   0.953E-03    0.449E-02
DAV:  12    -0.610498883795E+03    0.17030E-05   -0.15663E-04  6952   0.662E-03    0.501E-02
DAV:  13    -0.610498900907E+03   -0.17112E-04   -0.29499E-06  6448   0.482E-03    0.473E-02
DAV:  14    -0.610498899648E+03    0.12593E-05   -0.16532E-06  6344   0.341E-03
  16 F= -.61049890E+03 E0= -.61049890E+03  d E =-.128442E-02
 curvature:  -1.34 expect dE=-0.123E-02 dE for cont linesearch -0.410E-05
 trial: gam= 0.28575 g(F)=  0.801E-03 g(S)=  0.121E-03 ort = 0.146E-03 (trialstep = 0.814E+00)
 search vector abs. value=  0.157E-02
 bond charge predicted
       N       E                     dE             d eps       ncg     rms          rms(c)
DAV:   1    -0.610498269930E+03    0.63098E-03   -0.24174E-01 12928   0.105E+00    0.148E-01
DAV:   2    -0.610500310962E+03   -0.20410E-02   -0.21851E-02 13696   0.241E-01    0.480E-01
DAV:   3    -0.610498958441E+03    0.13525E-02   -0.25210E-02 16080   0.134E-01    0.117E-01
DAV:   4    -0.610498902293E+03    0.56148E-04   -0.61523E-04 18008   0.492E-02    0.782E-02
DAV:   5    -0.610498987836E+03   -0.85543E-04   -0.39388E-04 15056   0.458E-02    0.728E-02
DAV:   6    -0.610499150488E+03   -0.16265E-03   -0.13989E-04 14984   0.377E-02    0.607E-02
DAV:   7    -0.610499075764E+03    0.74724E-04   -0.24861E-04 13944   0.248E-02    0.329E-02
DAV:   8    -0.610498996216E+03    0.79547E-04   -0.25508E-05  8632   0.124E-02    0.276E-02
DAV:   9    -0.610499074393E+03   -0.78177E-04   -0.20599E-05  7400   0.946E-03    0.247E-02
DAV:  10    -0.610499087763E+03   -0.13370E-04   -0.71409E-06  7384   0.870E-03    0.175E-02
DAV:  11    -0.610499109944E+03   -0.22181E-04   -0.52148E-06  7176   0.741E-03    0.138E-02
DAV:  12    -0.610499136120E+03   -0.26176E-04   -0.11589E-05  6656   0.475E-03    0.918E-03
DAV:  13    -0.610499143463E+03   -0.73434E-05   -0.20095E-06  6560   0.404E-03
  17 F= -.61049914E+03 E0= -.61049914E+03  d E =-.243815E-03
 trial-energy change:   -0.000244  1 .order   -0.000574   -0.000784   -0.000364
 step:   1.5185(harm=  1.5185)  dis= 0.00292  next Energy=  -610.499631 (dE=-0.732E-03)
 bond charge predicted
       N       E                     dE             d eps       ncg     rms          rms(c)
DAV:   1    -0.610498316354E+03    0.81977E-03   -0.18102E-01 12888   0.908E-01    0.116E-01
DAV:   2    -0.610498951174E+03   -0.63482E-03   -0.71835E-03 12928   0.187E-01    0.848E-02
DAV:   3    -0.610499033409E+03   -0.82235E-04   -0.15981E-03 17896   0.802E-02    0.966E-02
DAV:   4    -0.610498829095E+03    0.20431E-03   -0.74949E-04 16480   0.562E-02    0.447E-02
DAV:   5    -0.610498986513E+03   -0.15742E-03   -0.34391E-04 14720   0.365E-02    0.549E-02
DAV:   6    -0.610498755348E+03    0.23117E-03   -0.10734E-04 13224   0.292E-02    0.209E-02
DAV:   7    -0.610498885503E+03   -0.13016E-03   -0.10482E-04  8704   0.128E-02    0.270E-02
DAV:   8    -0.610498850139E+03    0.35364E-04   -0.66187E-06  6960   0.818E-03    0.232E-02
DAV:   9    -0.610498851368E+03   -0.12291E-05   -0.32295E-06  6680   0.502E-03
  18 F= -.61049885E+03 E0= -.61049885E+03  d E =0.482798E-04
 curvature:  -1.24 expect dE=-0.821E-03 dE for cont linesearch -0.779E-06
 trial: gam= 0.74392 g(F)=  0.629E-03 g(S)=  0.342E-04 ort =-0.314E-04 (trialstep = 0.955E+00)
 search vector abs. value=  0.149E-02
 bond charge predicted
       N       E                     dE             d eps       ncg     rms          rms(c)
DAV:   1    -0.610498623568E+03    0.22657E-03   -0.31108E-01 12952   0.117E+00    0.117E-01
DAV:   2    -0.610499087287E+03   -0.46372E-03   -0.11391E-02 12840   0.227E-01    0.117E-01
DAV:   3    -0.610499840303E+03   -0.75302E-03   -0.17989E-03 18896   0.834E-02    0.888E-02
DAV:   4    -0.610499600874E+03    0.23943E-03   -0.36045E-04 14928   0.464E-02    0.582E-02
DAV:   5    -0.610499347456E+03    0.25342E-03   -0.26612E-04 14248   0.313E-02    0.470E-02
DAV:   6    -0.610499541242E+03   -0.19379E-03   -0.10594E-04 12920   0.334E-02    0.245E-02
DAV:   7    -0.610499499258E+03    0.41984E-04   -0.69123E-05 11264   0.208E-02    0.194E-02
DAV:   8    -0.610499500741E+03   -0.14831E-05   -0.19562E-05  7920   0.130E-02
  19 F= -.61049950E+03 E0= -.61049950E+03  d E =-.649373E-03
 trial-energy change:   -0.000649  1 .order   -0.000422   -0.000611   -0.000233
 step:   1.0712(harm=  1.5425)  dis= 0.00212  next Energy=  -610.499515 (dE=-0.664E-03)
 bond charge predicted
       N       E                     dE             d eps       ncg     rms          rms(c)
DAV:   1    -0.610499573497E+03   -0.74240E-04   -0.46164E-03 12704   0.143E-01    0.169E-02
DAV:   2    -0.610499481363E+03    0.92134E-04   -0.23906E-04 12864   0.297E-02    0.190E-02
DAV:   3    -0.610499589091E+03   -0.10773E-03   -0.47223E-05  8512   0.146E-02    0.137E-02
DAV:   4    -0.610499602299E+03   -0.13209E-04   -0.19402E-05  6992   0.839E-03    0.101E-02
DAV:   5    -0.610499568253E+03    0.34046E-04   -0.83142E-06  6648   0.568E-03    0.768E-03
DAV:   6    -0.610499562730E+03    0.55236E-05   -0.11270E-05  6608   0.451E-03
  20 F= -.61049956E+03 E0= -.61049956E+03  d E =-.711362E-03
 curvature:  -0.64 expect dE=-0.180E-03 dE for cont linesearch -0.157E-04
 ZBRENT: increasing intervall
 opt :   1.3039  next Energy=  -610.499595 (dE=-0.743E-03)
 bond charge predicted
       N       E                     dE             d eps       ncg     rms          rms(c)
DAV:   1    -0.610499634250E+03   -0.65996E-04   -0.18366E-02 12872   0.284E-01    0.282E-02
DAV:   2    -0.610499617585E+03    0.16665E-04   -0.69091E-04 13112   0.555E-02    0.289E-02
DAV:   3    -0.610499709528E+03   -0.91943E-04   -0.87241E-05 12704   0.197E-02    0.206E-02
DAV:   4    -0.610499685766E+03    0.23762E-04   -0.98078E-06  8312   0.115E-02    0.141E-02
DAV:   5    -0.610499758873E+03   -0.73106E-04   -0.75127E-05  7144   0.967E-03    0.202E-02
DAV:   6    -0.610499691587E+03    0.67286E-04   -0.16995E-05  6960   0.927E-03    0.858E-03
DAV:   7    -0.610499709529E+03   -0.17942E-04   -0.19969E-05  6656   0.583E-03    0.135E-02
DAV:   8    -0.610499709727E+03   -0.19810E-06   -0.51369E-06  6504   0.506E-03
  21 F= -.61049971E+03 E0= -.61049971E+03  d E =-.858359E-03
 curvature:  -1.31 expect dE=-0.407E-03 dE for cont linesearch -0.729E-05
 ZBRENT: increasing intervall
 opt :   1.7693  next Energy=  -610.499706 (dE=-0.854E-03)
 bond charge predicted
       N       E                     dE             d eps       ncg     rms          rms(c)
DAV:   1    -0.610499643120E+03    0.66409E-04   -0.73966E-02 12904   0.569E-01    0.714E-02
DAV:   2    -0.610499423805E+03    0.21931E-03   -0.51372E-03 13704   0.125E-01    0.119E-01
DAV:   3    -0.610499877642E+03   -0.45384E-03   -0.11913E-03 16872   0.636E-02    0.413E-02
DAV:   4    -0.610499885185E+03   -0.75425E-05   -0.22256E-04 13480   0.307E-02    0.381E-02
DAV:   5    -0.610499802008E+03    0.83177E-04   -0.70700E-05  9320   0.191E-02    0.243E-02
DAV:   6    -0.610499888980E+03   -0.86972E-04   -0.97072E-05  9520   0.197E-02    0.292E-02
DAV:   7    -0.610499828311E+03    0.60669E-04   -0.25413E-05  8688   0.167E-02    0.730E-03
DAV:   8    -0.610499814333E+03    0.13978E-04   -0.72387E-06  6912   0.709E-03    0.768E-03
DAV:   9    -0.610499827083E+03   -0.12751E-04   -0.56028E-06  6672   0.527E-03    0.493E-03
DAV:  10    -0.610499829254E+03   -0.21712E-05   -0.15140E-06  6496   0.357E-03
  22 F= -.61049983E+03 E0= -.61049983E+03  d E =-.977887E-03
 curvature:   0.74 expect dE= 0.336E-03 dE for cont linesearch  0.622E-05
 ZBRENT: bracketing found
 ZBRENT: interpolating
 opt :   1.5130  next Energy=  -610.499719 (dE=-0.868E-03)
 bond charge predicted
       N       E                     dE             d eps       ncg     rms          rms(c)
DAV:   1    -0.610499697447E+03    0.12964E-03   -0.22440E-02 12984   0.314E-01    0.340E-02
DAV:   2    -0.610500073229E+03   -0.37578E-03   -0.11407E-03 13128   0.636E-02    0.608E-02
DAV:   3    -0.610499770409E+03    0.30282E-03   -0.56611E-04 14472   0.268E-02    0.280E-02
DAV:   4    -0.610499747923E+03    0.22486E-04   -0.33185E-05  8080   0.121E-02    0.191E-02
DAV:   5    -0.610499804591E+03   -0.56668E-04   -0.50253E-05  6992   0.958E-03    0.172E-02
DAV:   6    -0.610499813780E+03   -0.91889E-05   -0.23134E-05  7304   0.114E-02
  23 F= -.61049981E+03 E0= -.61049981E+03  d E =-.962412E-03
 curvature:  -1.14 expect dE=-0.405E-03 dE for cont linesearch -0.284E-05
 trial: gam= 0.39719 g(F)=  0.353E-03 g(S)=  0.337E-05 ort =-0.609E-04 (trialstep = 0.107E+01)
 search vector abs. value=  0.542E-03
 bond charge predicted
       N       E                     dE             d eps       ncg     rms          rms(c)
DAV:   1    -0.610499057760E+03    0.74683E-03   -0.12119E-01 13496   0.987E-01    0.811E-02
DAV:   2    -0.610500178149E+03   -0.11204E-02   -0.11059E-02 13072   0.210E-01    0.589E-02
DAV:   3    -0.610500151298E+03    0.26850E-04   -0.74281E-04 19184   0.539E-02    0.460E-02
DAV:   4    -0.610500261456E+03   -0.11016E-03   -0.97101E-05 13760   0.301E-02    0.374E-02
DAV:   5    -0.610500155516E+03    0.10594E-03   -0.10017E-04 12384   0.219E-02    0.140E-02
DAV:   6    -0.610500264731E+03   -0.10921E-03   -0.28740E-05  8504   0.119E-02    0.131E-02
DAV:   7    -0.610500228841E+03    0.35890E-04   -0.29551E-05  7416   0.962E-03    0.806E-03
DAV:   8    -0.610500214642E+03    0.14198E-04   -0.52563E-06  6784   0.669E-03    0.593E-03
DAV:   9    -0.610500223365E+03   -0.87229E-05    0.56421E-08  6520   0.463E-03
  24 F= -.61050022E+03 E0= -.61050022E+03  d E =-.409585E-03
 trial-energy change:   -0.000410  1 .order   -0.000172   -0.000354    0.000011
 step:   1.0602(harm=  1.0355)  dis= 0.00144  next Energy=  -610.500223 (dE=-0.410E-03)
 reached required accuracy - stopping structural energy minimisation
 writing wavefunctions
