 running on  100 total cores
 distrk:  each k-point on  100 cores,    1 groups
 distr:  one band on   25 cores,    4 groups
 using from now: INCAR     
 vasp.5.4.4.18Apr17-6-g9f103f2a35 (build May 23 2017 16:08:52) complex          
  
 POSCAR found :  4 types and      75 ions
 scaLAPACK will be used

 ----------------------------------------------------------------------------- 
|                                                                             |
|           W    W    AA    RRRRR   N    N  II  N    N   GGGG   !!!           |
|           W    W   A  A   R    R  NN   N  II  NN   N  G    G  !!!           |
|           W    W  A    A  R    R  N N  N  II  N N  N  G       !!!           |
|           W WW W  AAAAAA  RRRRR   N  N N  II  N  N N  G  GGG   !            |
|           WW  WW  A    A  R   R   N   NN  II  N   NN  G    G                |
|           W    W  A    A  R    R  N    N  II  N    N   GGGG   !!!           |
|                                                                             |
|      For optimal performance we recommend to set                            |
|        NCORE= 4 - approx SQRT( number of cores)                             |
|      NCORE specifies how many cores store one orbital (NPAR=cpu/NCORE).     |
|      This setting can  greatly improve the performance of VASP for DFT.     |
|      The default,   NCORE=1            might be grossly inefficient         |
|      on modern multi-core architectures or massively parallel machines.     |
|      Do your own testing !!!!                                               |
|      Unfortunately you need to use the default for GW and RPA calculations. |
|      (for HF NCORE is supported but not extensively tested yet)             |
|                                                                             |
 ----------------------------------------------------------------------------- 


 ----------------------------------------------------------------------------- 
|                                                                             |
|  ADVICE TO THIS USER RUNNING 'VASP/VAMP'   (HEAR YOUR MASTER'S VOICE ...):  |
|                                                                             |
|      You have a (more or less) 'large supercell' and for larger cells       |
|      it might be more efficient to use real space projection opertators     |
|      So try LREAL= Auto  in the INCAR   file.                               |
|      Mind:          For very  accurate calculation you might also keep the  |
|      reciprocal projection scheme          (i.e. LREAL=.FALSE.)             |
|                                                                             |
 ----------------------------------------------------------------------------- 

 LDA part: xc-table for Pade appr. of Perdew
 POSCAR, INCAR and KPOINTS ok, starting setup
 FFT: planning ...
 WAVECAR not read
 entering main loop
       N       E                     dE             d eps       ncg     rms          rms(c)
DAV:   1     0.741163227219E+04    0.74116E+04   -0.30847E+05 11648   0.173E+03
DAV:   2     0.685106031938E+03   -0.67265E+04   -0.63361E+04 12200   0.560E+02
DAV:   3    -0.627610709935E+03   -0.13127E+04   -0.12828E+04 16404   0.224E+02
DAV:   4    -0.725448684946E+03   -0.97838E+02   -0.96693E+02 17728   0.669E+01
DAV:   5    -0.733740591639E+03   -0.82919E+01   -0.82013E+01 21784   0.154E+01    0.921E+01
DAV:   6    -0.608264587692E+03    0.12548E+03   -0.75520E+02 16344   0.617E+01    0.571E+01
DAV:   7    -0.611629389531E+03   -0.33648E+01   -0.15046E+02 16824   0.292E+01    0.405E+01
DAV:   8    -0.613979124222E+03   -0.23497E+01   -0.79788E+01 17200   0.221E+01    0.198E+01
DAV:   9    -0.614479982056E+03   -0.50086E+00   -0.31095E+01 16480   0.159E+01    0.229E+01
DAV:  10    -0.608917751164E+03    0.55622E+01   -0.28292E+01 16912   0.115E+01    0.100E+01
DAV:  11    -0.607076588483E+03    0.18412E+01   -0.62519E+00 16988   0.690E+00    0.370E+00
DAV:  12    -0.607055420594E+03    0.21168E-01   -0.29235E+00 16968   0.300E+00    0.293E+00
DAV:  13    -0.606942200928E+03    0.11322E+00   -0.94134E-01 17016   0.189E+00    0.175E+00
DAV:  14    -0.606934079668E+03    0.81213E-02   -0.32626E-01 17136   0.116E+00    0.856E-01
DAV:  15    -0.606931100393E+03    0.29793E-02   -0.10572E-01 16456   0.633E-01    0.509E-01
DAV:  16    -0.606926726544E+03    0.43738E-02   -0.15391E-02 18424   0.317E-01    0.271E-01
DAV:  17    -0.606926662656E+03    0.63888E-04   -0.36686E-03 17016   0.147E-01    0.190E-01
DAV:  18    -0.606926022276E+03    0.64038E-03   -0.54900E-03 17088   0.171E-01    0.182E-01
DAV:  19    -0.606925924464E+03    0.97812E-04   -0.28707E-03 16472   0.987E-02    0.427E-02
DAV:  20    -0.606925977269E+03   -0.52806E-04   -0.27487E-04 18512   0.326E-02    0.305E-02
DAV:  21    -0.606926055377E+03   -0.78107E-04   -0.96591E-05 12600   0.183E-02    0.292E-02
DAV:  22    -0.606925944914E+03    0.11046E-03   -0.43267E-05  8608   0.158E-02    0.155E-02
DAV:  23    -0.606925916602E+03    0.28312E-04   -0.20097E-05  6904   0.770E-03    0.113E-02
DAV:  24    -0.606925871872E+03    0.44730E-04   -0.74267E-06  7080   0.719E-03    0.890E-03
DAV:  25    -0.606925866295E+03    0.55768E-05   -0.13415E-05  6784   0.459E-03
   1 F= -.60692587E+03 E0= -.60692587E+03  d E =-.606926E+03
 curvature:   0.00 expect dE= 0.000E+00 dE for cont linesearch  0.000E+00
 trial: gam= 0.00000 g(F)=  0.921E+00 g(S)=  0.480E+01 ort = 0.000E+00 (trialstep = 0.100E+01)
 search vector abs. value=  0.572E+01
 bond charge predicted
       N       E                     dE             d eps       ncg     rms          rms(c)
DAV:   1    -0.640697024442E+03   -0.33771E+02   -0.11768E+03 15184   0.903E+01    0.502E+01
DAV:   2    -0.619506313249E+03    0.21191E+02   -0.16605E+02 15356   0.368E+01    0.227E+01
DAV:   3    -0.610321253236E+03    0.91851E+01   -0.47985E+01 17528   0.193E+01    0.193E+01
DAV:   4    -0.607630157579E+03    0.26911E+01   -0.21980E+01 16808   0.120E+01    0.103E+01
DAV:   5    -0.609335634292E+03   -0.17055E+01   -0.20566E+01 17792   0.831E+00    0.106E+01
DAV:   6    -0.607199946181E+03    0.21357E+01   -0.85730E+00 17712   0.579E+00    0.680E+00
DAV:   7    -0.607194046635E+03    0.58995E-02   -0.21636E+00 18036   0.259E+00    0.514E+00
DAV:   8    -0.607229322270E+03   -0.35276E-01   -0.16391E+00 17788   0.218E+00    0.374E+00
DAV:   9    -0.607230849050E+03   -0.15268E-02   -0.67988E-01 17468   0.169E+00    0.128E+00
DAV:  10    -0.607227806001E+03    0.30430E-02   -0.32104E-01 16252   0.105E+00    0.112E+00
DAV:  11    -0.607213742976E+03    0.14063E-01   -0.10374E-01 16720   0.757E-01    0.924E-01
DAV:  12    -0.607209031017E+03    0.47120E-02   -0.19785E-02 17172   0.314E-01    0.524E-01
DAV:  13    -0.607209390411E+03   -0.35939E-03   -0.52488E-03 16488   0.194E-01    0.305E-01
DAV:  14    -0.607209657290E+03   -0.26688E-03   -0.38002E-03 17364   0.129E-01    0.145E-01
DAV:  15    -0.607209979478E+03   -0.32219E-03   -0.18449E-03 19040   0.802E-02    0.606E-02
DAV:  16    -0.607210111594E+03   -0.13212E-03   -0.34085E-04 16880   0.421E-02    0.244E-02
DAV:  17    -0.607210151122E+03   -0.39528E-04   -0.78517E-05 14152   0.196E-02    0.174E-02
DAV:  18    -0.607210213319E+03   -0.62198E-04   -0.14365E-05  7680   0.101E-02    0.793E-03
DAV:  19    -0.607210187335E+03    0.25984E-04   -0.49950E-06  6808   0.709E-03    0.477E-03
DAV:  20    -0.607210194538E+03   -0.72028E-05   -0.20096E-06  6744   0.463E-03
   2 F= -.60721019E+03 E0= -.60721019E+03  d E =-.284328E+00
 trial-energy change:   -0.284328  1 .order   -0.451085   -5.722932    4.820762
 step:   0.5191(harm=  0.5428)  dis= 0.02415  next Energy=  -608.387909 (dE=-0.146E+01)
 bond charge predicted
       N       E                     dE             d eps       ncg     rms          rms(c)
DAV:   1    -0.616405731074E+03   -0.91955E+01   -0.27369E+02 15124   0.428E+01    0.239E+01
DAV:   2    -0.610123451990E+03    0.62823E+01   -0.32890E+01 14512   0.135E+01    0.946E+00
DAV:   3    -0.611154127281E+03   -0.10307E+01   -0.14476E+01 17048   0.105E+01    0.108E+01
DAV:   4    -0.609009807638E+03    0.21443E+01   -0.10934E+01 16208   0.754E+00    0.585E+00
DAV:   5    -0.608334060679E+03    0.67575E+00   -0.66512E+00 17008   0.366E+00    0.277E+00
DAV:   6    -0.608305480006E+03    0.28581E-01   -0.87553E-01 18632   0.175E+00    0.195E+00
DAV:   7    -0.608317036397E+03   -0.11556E-01   -0.20905E-01 17112   0.978E-01    0.166E+00
DAV:   8    -0.608339108355E+03   -0.22072E-01   -0.61901E-02 20160   0.603E-01    0.130E+00
DAV:   9    -0.608370454367E+03   -0.31346E-01   -0.89860E-02 18248   0.690E-01    0.961E-01
DAV:  10    -0.608373133300E+03   -0.26789E-02   -0.82152E-02 18904   0.571E-01    0.317E-01
DAV:  11    -0.608370272430E+03    0.28609E-02   -0.12790E-02 17228   0.216E-01    0.180E-01
DAV:  12    -0.608370205491E+03    0.66939E-04   -0.16715E-03 17688   0.103E-01    0.993E-02
DAV:  13    -0.608370574710E+03   -0.36922E-03   -0.61630E-04 17528   0.747E-02    0.636E-02
DAV:  14    -0.608370823426E+03   -0.24872E-03   -0.31898E-04 17344   0.498E-02    0.557E-02
DAV:  15    -0.608370634579E+03    0.18885E-03   -0.47442E-04 13600   0.237E-02    0.235E-02
DAV:  16    -0.608370807173E+03   -0.17259E-03   -0.21885E-05  9056   0.148E-02    0.895E-03
DAV:  17    -0.608370819807E+03   -0.12634E-04   -0.10789E-05  7332   0.779E-03    0.449E-03
DAV:  18    -0.608370812657E+03    0.71500E-05   -0.35724E-06  6800   0.621E-03
   3 F= -.60837081E+03 E0= -.60837081E+03  d E =-.144495E+01
 curvature:  -0.27 expect dE=-0.105E+00 dE for cont linesearch -0.355E-03
 ZBRENT: interpolating
 opt :   0.5114  next Energy=  -608.371148 (dE=-0.145E+01)
 bond charge predicted
       N       E                     dE             d eps       ncg     rms          rms(c)
DAV:   1    -0.608372632470E+03   -0.18127E-02   -0.71210E-02 15272   0.697E-01    0.379E-01
DAV:   2    -0.608372408019E+03    0.22445E-03   -0.83869E-03 14760   0.228E-01    0.180E-01
DAV:   3    -0.608369743945E+03    0.26641E-02   -0.65554E-03 16476   0.187E-01    0.313E-01
DAV:   4    -0.608371315057E+03   -0.15711E-02   -0.67132E-03 15528   0.141E-01    0.770E-02
DAV:   5    -0.608370922840E+03    0.39222E-03   -0.92097E-04 16656   0.721E-02    0.922E-02
DAV:   6    -0.608370615786E+03    0.30705E-03   -0.12908E-03 14608   0.540E-02    0.608E-02
DAV:   7    -0.608370836035E+03   -0.22025E-03   -0.79379E-05 12416   0.258E-02    0.366E-02
DAV:   8    -0.608370852513E+03   -0.16478E-04   -0.15906E-05  8544   0.119E-02    0.295E-02
DAV:   9    -0.608370993945E+03   -0.14143E-03   -0.40060E-05 10592   0.172E-02    0.176E-02
DAV:  10    -0.608370966188E+03    0.27757E-04   -0.19899E-05  8784   0.128E-02    0.528E-03
DAV:  11    -0.608370961392E+03    0.47957E-05   -0.59357E-06  6512   0.704E-03
   4 F= -.60837096E+03 E0= -.60837096E+03  d E =-.144510E+01
 curvature:  -0.26 expect dE=-0.957E-01 dE for cont linesearch -0.266E-05
 trial: gam= 0.06677 g(F)=  0.331E+00 g(S)=  0.430E-01 ort =-0.771E-02 (trialstep = 0.902E+00)
 search vector abs. value=  0.399E+00
 bond charge predicted
       N       E                     dE             d eps       ncg     rms          rms(c)
DAV:   1    -0.608574872285E+03   -0.20391E+00   -0.39588E+01 12944   0.109E+01    0.254E+00
DAV:   2    -0.608670852979E+03   -0.95981E-01   -0.16604E+00 13892   0.255E+00    0.224E+00
DAV:   3    -0.608685614088E+03   -0.14761E-01   -0.40594E-01 16640   0.144E+00    0.194E+00
DAV:   4    -0.608689948894E+03   -0.43348E-02   -0.73475E-01 14760   0.124E+00    0.160E+00
DAV:   5    -0.608661436366E+03    0.28513E-01   -0.34313E-01 16780   0.991E-01    0.112E+00
DAV:   6    -0.608664338150E+03   -0.29018E-02   -0.15111E-01 17368   0.683E-01    0.754E-01
DAV:   7    -0.608647572548E+03    0.16766E-01   -0.38192E-02 17636   0.401E-01    0.243E-01
DAV:   8    -0.608648219210E+03   -0.64666E-03   -0.57529E-03 18432   0.179E-01    0.233E-01
DAV:   9    -0.608647400192E+03    0.81902E-03   -0.66325E-03 17004   0.107E-01    0.137E-01
DAV:  10    -0.608647349735E+03    0.50457E-04   -0.67572E-04 16264   0.609E-02    0.792E-02
DAV:  11    -0.608647338767E+03    0.10967E-04   -0.11802E-03 15808   0.563E-02    0.103E-01
DAV:  12    -0.608647236758E+03    0.10201E-03   -0.13025E-03 14336   0.306E-02    0.241E-02
DAV:  13    -0.608647230632E+03    0.61258E-05   -0.20725E-05  9208   0.114E-02
   5 F= -.60864723E+03 E0= -.60864723E+03  d E =-.276269E+00
 trial-energy change:   -0.276269  1 .order   -0.271878   -0.337367   -0.206389
 step:   1.9009(harm=  2.3240)  dis= 0.07214  next Energy=  -608.767393 (dE=-0.396E+00)
 bond charge predicted
       N       E                     dE             d eps       ncg     rms          rms(c)
DAV:   1    -0.608710620979E+03   -0.63384E-01   -0.48514E+01 12920   0.120E+01    0.290E+00
DAV:   2    -0.608857671704E+03   -0.14705E+00   -0.23491E+00 14192   0.294E+00    0.289E+00
DAV:   3    -0.608840301539E+03    0.17370E-01   -0.76209E-01 16408   0.176E+00    0.214E+00
DAV:   4    -0.608858135529E+03   -0.17834E-01   -0.82047E-01 15016   0.149E+00    0.191E+00
DAV:   5    -0.608812433192E+03    0.45702E-01   -0.45046E-01 16208   0.115E+00    0.112E+00
DAV:   6    -0.608815616022E+03   -0.31828E-02   -0.25834E-01 17840   0.773E-01    0.944E-01
DAV:   7    -0.608797323466E+03    0.18293E-01   -0.63388E-02 17444   0.467E-01    0.292E-01
DAV:   8    -0.608797456627E+03   -0.13316E-03   -0.10588E-02 18912   0.193E-01    0.247E-01
DAV:   9    -0.608796370584E+03    0.10860E-02   -0.40048E-03 17160   0.108E-01    0.150E-01
DAV:  10    -0.608796695599E+03   -0.32502E-03   -0.29836E-03 16008   0.569E-02    0.131E-01
DAV:  11    -0.608796614896E+03    0.80703E-04   -0.18431E-03 16984   0.679E-02    0.960E-02
DAV:  12    -0.608796354682E+03    0.26021E-03   -0.11382E-03 15072   0.426E-02    0.672E-02
DAV:  13    -0.608796416810E+03   -0.62128E-04   -0.15269E-04  9960   0.163E-02    0.680E-02
DAV:  14    -0.608796420674E+03   -0.38637E-05   -0.30957E-04  7192   0.805E-03    0.373E-02
DAV:  15    -0.608796458762E+03   -0.38089E-04   -0.29464E-04  7040   0.862E-03    0.693E-02
DAV:  16    -0.608796433281E+03    0.25481E-04   -0.66837E-05  6880   0.731E-03    0.346E-02
DAV:  17    -0.608796434547E+03   -0.12659E-05   -0.13637E-04  6432   0.399E-03    0.645E-02
DAV:  18    -0.608796421576E+03    0.12971E-04   -0.12195E-04  6400   0.441E-03    0.350E-02
DAV:  19    -0.608796417660E+03    0.39153E-05   -0.14448E-05  6376   0.267E-03
   6 F= -.60879642E+03 E0= -.60879642E+03  d E =-.425456E+00
 curvature:  -1.13 expect dE=-0.149E+00 dE for cont linesearch -0.118E-01
 ZBRENT: extrapolating
 opt :   2.2923  next Energy=  -608.809023 (dE=-0.438E+00)
 bond charge predicted
       N       E                     dE             d eps       ncg     rms          rms(c)
DAV:   1    -0.608797051159E+03   -0.62958E-03   -0.74288E+00 12996   0.472E+00    0.113E+00
DAV:   2    -0.608815734470E+03   -0.18683E-01   -0.34730E-01 14048   0.114E+00    0.119E+00
DAV:   3    -0.608820277634E+03   -0.45432E-02   -0.17578E-01 16056   0.697E-01    0.104E+00
DAV:   4    -0.608818048739E+03    0.22289E-02   -0.12243E-01 15088   0.584E-01    0.765E-01
DAV:   5    -0.608812118410E+03    0.59303E-02   -0.82953E-02 16524   0.467E-01    0.510E-01
DAV:   6    -0.608812662598E+03   -0.54419E-03   -0.62075E-02 17048   0.355E-01    0.359E-01
DAV:   7    -0.608809427966E+03    0.32346E-02   -0.73966E-03 17696   0.204E-01    0.131E-01
DAV:   8    -0.608809391604E+03    0.36362E-04   -0.15350E-03 18936   0.782E-02    0.110E-01
DAV:   9    -0.608809227388E+03    0.16422E-03   -0.13031E-03 16572   0.381E-02    0.797E-02
DAV:  10    -0.608809086827E+03    0.14056E-03   -0.58364E-04 14056   0.299E-02    0.773E-02
DAV:  11    -0.608809160467E+03   -0.73640E-04   -0.52185E-04 12720   0.291E-02    0.420E-02
DAV:  12    -0.608809060135E+03    0.10033E-03   -0.95623E-05  8152   0.142E-02    0.427E-02
DAV:  13    -0.608809086856E+03   -0.26721E-04   -0.20333E-04  6760   0.749E-03    0.345E-02
DAV:  14    -0.608809065290E+03    0.21566E-04   -0.18319E-05  6480   0.592E-03    0.393E-02
DAV:  15    -0.608809078509E+03   -0.13219E-04   -0.14564E-04  6420   0.433E-03    0.332E-02
DAV:  16    -0.608809064471E+03    0.14038E-04   -0.17651E-06  6344   0.328E-03    0.297E-02
DAV:  17    -0.608809065664E+03   -0.11936E-05   -0.61106E-07  6320   0.205E-03
   7 F= -.60880907E+03 E0= -.60880907E+03  d E =-.438104E+00
 curvature:  -1.21 expect dE=-0.222E+00 dE for cont linesearch -0.497E-04
 trial: gam= 0.53164 g(F)=  0.153E+00 g(S)=  0.306E-01 ort =-0.404E-02 (trialstep = 0.118E+01)
 search vector abs. value=  0.292E+00
 bond charge predicted
       N       E                     dE             d eps       ncg     rms          rms(c)
DAV:   1    -0.608733645534E+03    0.75419E-01   -0.64066E+01 12228   0.173E+01    0.301E+00
DAV:   2    -0.608925770309E+03   -0.19212E+00   -0.34169E+00 13380   0.441E+00    0.235E+00
DAV:   3    -0.608930784616E+03   -0.50143E-02   -0.55971E-01 18520   0.158E+00    0.166E+00
DAV:   4    -0.608923608296E+03    0.71763E-02   -0.29573E-01 15776   0.107E+00    0.141E+00
DAV:   5    -0.608933510759E+03   -0.99025E-02   -0.62233E-01 16896   0.119E+00    0.154E+00
DAV:   6    -0.608897429080E+03    0.36082E-01   -0.18166E-01 16552   0.831E-01    0.491E-01
DAV:   7    -0.608893420033E+03    0.40090E-02   -0.26746E-02 17488   0.343E-01    0.339E-01
DAV:   8    -0.608893824314E+03   -0.40428E-03   -0.40911E-03 18148   0.163E-01    0.232E-01
DAV:   9    -0.608893146754E+03    0.67756E-03   -0.31332E-03 17736   0.941E-02    0.174E-01
DAV:  10    -0.608895506618E+03   -0.23599E-02   -0.25706E-03 16032   0.109E-01    0.144E-01
DAV:  11    -0.608893659139E+03    0.18475E-02   -0.14982E-03 17156   0.705E-02    0.535E-02
DAV:  12    -0.608893964105E+03   -0.30497E-03   -0.43229E-04 15276   0.256E-02    0.551E-02
DAV:  13    -0.608894002170E+03   -0.38065E-04   -0.42059E-04  9744   0.152E-02    0.384E-02
DAV:  14    -0.608893932851E+03    0.69318E-04   -0.56785E-05  7372   0.977E-03    0.373E-02
DAV:  15    -0.608893954336E+03   -0.21484E-04   -0.13710E-05  6720   0.444E-03    0.313E-02
DAV:  16    -0.608893991380E+03   -0.37044E-04   -0.16287E-04  6688   0.697E-03    0.496E-02
DAV:  17    -0.608893970843E+03    0.20537E-04   -0.78752E-05  6556   0.569E-03    0.278E-02
DAV:  18    -0.608893975071E+03   -0.42273E-05   -0.85219E-05  6444   0.356E-03
   8 F= -.60889398E+03 E0= -.60889398E+03  d E =-.849094E-01
 trial-energy change:   -0.084909  1 .order   -0.082374   -0.213954    0.049206
 step:   0.9696(harm=  0.9596)  dis= 0.02804  next Energy=  -608.898352 (dE=-0.893E-01)
 bond charge predicted
       N       E                     dE             d eps       ncg     rms          rms(c)
DAV:   1    -0.608892254070E+03    0.17168E-02   -0.20395E+00 12236   0.310E+00    0.545E-01
DAV:   2    -0.608900886039E+03   -0.86320E-02   -0.12027E-01 13624   0.794E-01    0.450E-01
DAV:   3    -0.608903178502E+03   -0.22925E-02   -0.44588E-02 17076   0.361E-01    0.457E-01
DAV:   4    -0.608898663970E+03    0.45145E-02   -0.33228E-02 15936   0.311E-01    0.308E-01
DAV:   5    -0.608899007092E+03   -0.34312E-03   -0.50540E-03 16880   0.195E-01    0.150E-01
DAV:   6    -0.608897521380E+03    0.14857E-02   -0.22195E-03 17892   0.983E-02    0.105E-01
DAV:   7    -0.608898551706E+03   -0.10303E-02   -0.15736E-03 17012   0.599E-02    0.645E-02
DAV:   8    -0.608898076174E+03    0.47553E-03   -0.10667E-04 14836   0.292E-02    0.416E-02
DAV:   9    -0.608898175037E+03   -0.98863E-04   -0.25076E-04 12536   0.202E-02    0.474E-02
DAV:  10    -0.608897950050E+03    0.22499E-03   -0.21127E-04 11044   0.194E-02    0.251E-02
DAV:  11    -0.608898008395E+03   -0.58345E-04   -0.27306E-05  7008   0.967E-03    0.351E-02
DAV:  12    -0.608898123513E+03   -0.11512E-03   -0.24347E-04  6712   0.794E-03    0.239E-02
DAV:  13    -0.608898033726E+03    0.89787E-04   -0.39845E-06  6616   0.606E-03    0.199E-02
DAV:  14    -0.608898024292E+03    0.94338E-05   -0.14240E-06  6344   0.373E-03
   9 F= -.60889802E+03 E0= -.60889802E+03  d E =-.889586E-01
 curvature:  -0.77 expect dE=-0.246E-01 dE for cont linesearch -0.217E-04
 trial: gam= 0.15539 g(F)=  0.264E-01 g(S)=  0.559E-02 ort =-0.287E-02 (trialstep = 0.114E+01)
 search vector abs. value=  0.381E-01
 bond charge predicted
       N       E                     dE             d eps       ncg     rms          rms(c)
DAV:   1    -0.608852231328E+03    0.45802E-01   -0.81862E+00 13588   0.926E+00    0.158E+00
DAV:   2    -0.608927296611E+03   -0.75065E-01   -0.11609E+00 12704   0.230E+00    0.105E+00
DAV:   3    -0.608936200485E+03   -0.89039E-02   -0.24637E-01 17064   0.103E+00    0.128E+00
DAV:   4    -0.608921564444E+03    0.14636E-01   -0.21292E-01 14904   0.785E-01    0.688E-01
DAV:   5    -0.608921453737E+03    0.11071E-03   -0.74465E-02 16668   0.546E-01    0.459E-01
DAV:   6    -0.608913975850E+03    0.74779E-02   -0.28251E-02 16912   0.267E-01    0.199E-01
DAV:   7    -0.608915383544E+03   -0.14077E-02   -0.33543E-03 18700   0.125E-01    0.164E-01
DAV:   8    -0.608914683274E+03    0.70027E-03   -0.56012E-04 18852   0.607E-02    0.130E-01
DAV:   9    -0.608915552246E+03   -0.86897E-03   -0.51767E-04 16636   0.552E-02    0.957E-02
DAV:  10    -0.608914800771E+03    0.75147E-03   -0.25578E-04 15384   0.524E-02    0.430E-02
DAV:  11    -0.608914836163E+03   -0.35392E-04   -0.97353E-05 14316   0.256E-02    0.154E-02
DAV:  12    -0.608914827445E+03    0.87181E-05   -0.22718E-05  9264   0.103E-02
  10 F= -.60891483E+03 E0= -.60891483E+03  d E =-.168032E-01
 trial-energy change:   -0.016803  1 .order   -0.014190   -0.035861    0.007481
 step:   0.9887(harm=  0.9417)  dis= 0.01312  next Energy=  -608.915313 (dE=-0.173E-01)
 bond charge predicted
       N       E                     dE             d eps       ncg     rms          rms(c)
DAV:   1    -0.608913971889E+03    0.86427E-03   -0.14102E-01 13428   0.122E+00    0.205E-01
DAV:   2    -0.608915421889E+03   -0.14500E-02   -0.20287E-02 12780   0.303E-01    0.155E-01
DAV:   3    -0.608915263976E+03    0.15791E-03   -0.95185E-03 16512   0.162E-01    0.210E-01
DAV:   4    -0.608915258003E+03    0.59731E-05   -0.61396E-03 15476   0.125E-01    0.113E-01
DAV:   5    -0.608915458361E+03   -0.20036E-03   -0.21042E-03 17488   0.740E-02    0.620E-02
DAV:   6    -0.608915455005E+03    0.33563E-05   -0.35730E-04 16664   0.479E-02    0.395E-02
DAV:   7    -0.608915257252E+03    0.19775E-03   -0.83991E-05 12752   0.279E-02    0.229E-02
DAV:   8    -0.608915451585E+03   -0.19433E-03   -0.21279E-05  8232   0.130E-02    0.183E-02
DAV:   9    -0.608915211035E+03    0.24055E-03   -0.16907E-05  7792   0.124E-02    0.153E-02
DAV:  10    -0.608915332055E+03   -0.12102E-03   -0.10771E-05  6920   0.943E-03    0.596E-03
DAV:  11    -0.608915312229E+03    0.19825E-04   -0.47052E-06  6376   0.606E-03    0.488E-03
DAV:  12    -0.608915312102E+03    0.12779E-06   -0.28106E-06  6264   0.487E-03
  11 F= -.60891531E+03 E0= -.60891531E+03  d E =-.172878E-01
 curvature:  -0.54 expect dE=-0.488E-02 dE for cont linesearch -0.319E-04
 trial: gam= 0.31669 g(F)=  0.683E-02 g(S)=  0.226E-02 ort =-0.151E-02 (trialstep = 0.111E+01)
 search vector abs. value=  0.120E-01
 bond charge predicted
       N       E                     dE             d eps       ncg     rms          rms(c)
DAV:   1    -0.608897352934E+03    0.17959E-01   -0.24635E+00 13676   0.492E+00    0.702E-01
DAV:   2    -0.608918798102E+03   -0.21445E-01   -0.34706E-01 12792   0.120E+00    0.486E-01
DAV:   3    -0.608932237303E+03   -0.13439E-01   -0.86962E-02 17696   0.517E-01    0.725E-01
DAV:   4    -0.608922656474E+03    0.95808E-02   -0.86501E-02 15712   0.378E-01    0.365E-01
DAV:   5    -0.608919014607E+03    0.36419E-02   -0.16980E-02 16584   0.236E-01    0.275E-01
DAV:   6    -0.608921058585E+03   -0.20440E-02   -0.14774E-02 17512   0.200E-01    0.263E-01
DAV:   7    -0.608919990299E+03    0.10683E-02   -0.61230E-03 16812   0.133E-01    0.853E-02
DAV:   8    -0.608919916158E+03    0.74141E-04   -0.36000E-04 18044   0.447E-02    0.645E-02
DAV:   9    -0.608919987625E+03   -0.71467E-04   -0.13372E-04 13600   0.271E-02    0.537E-02
DAV:  10    -0.608920127471E+03   -0.13985E-03   -0.12052E-04 12436   0.274E-02    0.257E-02
DAV:  11    -0.608920125507E+03    0.19639E-05   -0.48690E-05 11640   0.192E-02
  12 F= -.60892013E+03 E0= -.60892013E+03  d E =-.481341E-02
 trial-energy change:   -0.004813  1 .order   -0.004306   -0.009544    0.000931
 step:   1.0307(harm=  1.0097)  dis= 0.00864  next Energy=  -608.920158 (dE=-0.485E-02)
 bond charge predicted
       N       E                     dE             d eps       ncg     rms          rms(c)
DAV:   1    -0.608919858814E+03    0.26866E-03   -0.12206E-02 13948   0.346E-01    0.509E-02
DAV:   2    -0.608920318865E+03   -0.46005E-03   -0.17119E-03 12900   0.847E-02    0.355E-02
DAV:   3    -0.608919743577E+03    0.57529E-03   -0.23969E-04 15160   0.321E-02    0.391E-02
DAV:   4    -0.608920083971E+03   -0.34039E-03   -0.19629E-04  9840   0.236E-02    0.267E-02
DAV:   5    -0.608920167251E+03   -0.83280E-04   -0.10666E-04  9032   0.185E-02    0.181E-02
DAV:   6    -0.608920055142E+03    0.11211E-03   -0.27643E-05  7688   0.131E-02    0.884E-03
DAV:   7    -0.608920079061E+03   -0.23919E-04   -0.59346E-06  6448   0.766E-03    0.494E-03
DAV:   8    -0.608920075240E+03    0.38204E-05   -0.24721E-06  6176   0.410E-03
  13 F= -.60892008E+03 E0= -.60892008E+03  d E =-.476314E-02
 curvature:  -0.67 expect dE=-0.165E-02 dE for cont linesearch -0.588E-05
 trial: gam= 0.23544 g(F)=  0.219E-02 g(S)=  0.280E-03 ort =-0.324E-03 (trialstep = 0.109E+01)
 search vector abs. value=  0.298E-02
 bond charge predicted
       N       E                     dE             d eps       ncg     rms          rms(c)
DAV:   1    -0.608919540039E+03    0.53902E-03   -0.71777E-01 12152   0.190E+00    0.254E-01
DAV:   2    -0.608923307266E+03   -0.37672E-02   -0.31643E-02 13672   0.420E-01    0.223E-01
DAV:   3    -0.608921754657E+03    0.15526E-02   -0.91815E-03 17632   0.189E-01    0.233E-01
DAV:   4    -0.608921797868E+03   -0.43211E-04   -0.72897E-03 15920   0.137E-01    0.141E-01
DAV:   5    -0.608922982013E+03   -0.11841E-02   -0.33403E-03 16976   0.913E-02    0.156E-01
DAV:   6    -0.608921527134E+03    0.14549E-02   -0.38479E-03 16744   0.919E-02    0.842E-02
DAV:   7    -0.608921441574E+03    0.85560E-04   -0.33327E-04 15860   0.459E-02    0.350E-02
DAV:   8    -0.608921763751E+03   -0.32218E-03   -0.49400E-05 11304   0.194E-02    0.267E-02
DAV:   9    -0.608921680200E+03    0.83551E-04   -0.23512E-05  8684   0.148E-02    0.187E-02
DAV:  10    -0.608921871428E+03   -0.19123E-03   -0.17043E-05  7496   0.123E-02    0.100E-02
DAV:  11    -0.608921807320E+03    0.64108E-04   -0.80671E-06  6904   0.900E-03    0.517E-03
DAV:  12    -0.608921795146E+03    0.12174E-04   -0.31638E-06  6416   0.549E-03    0.307E-03
DAV:  13    -0.608921796696E+03   -0.15507E-05   -0.15703E-06  6344   0.340E-03
  14 F= -.60892180E+03 E0= -.60892180E+03  d E =-.172146E-02
 trial-energy change:   -0.001721  1 .order   -0.001771   -0.002610   -0.000932
 step:   1.9883(harm=  1.6995)  dis= 0.00506  next Energy=  -608.922151 (dE=-0.208E-02)
 bond charge predicted
       N       E                     dE             d eps       ncg     rms          rms(c)
DAV:   1    -0.608920353468E+03    0.14417E-02   -0.48202E-01 12132   0.155E+00    0.209E-01
DAV:   2    -0.608922624767E+03   -0.22713E-02   -0.21542E-02 13560   0.343E-01    0.189E-01
DAV:   3    -0.608922019893E+03    0.60487E-03   -0.80193E-03 17924   0.160E-01    0.211E-01
DAV:   4    -0.608921880039E+03    0.13985E-03   -0.49872E-03 15648   0.114E-01    0.104E-01
DAV:   5    -0.608922253537E+03   -0.37350E-03   -0.17580E-03 17496   0.730E-02    0.108E-01
DAV:   6    -0.608922156245E+03    0.97291E-04   -0.88902E-04 16740   0.637E-02    0.564E-02
DAV:   7    -0.608921645937E+03    0.51031E-03   -0.31072E-04 13752   0.379E-02    0.329E-02
DAV:   8    -0.608921984111E+03   -0.33817E-03   -0.26655E-05  9016   0.167E-02    0.216E-02
DAV:   9    -0.608921821747E+03    0.16236E-03   -0.43840E-05  7704   0.116E-02    0.264E-02
DAV:  10    -0.608921920507E+03   -0.98760E-04   -0.11015E-04  6992   0.911E-03    0.176E-02
DAV:  11    -0.608921908323E+03    0.12184E-04   -0.47327E-06  6664   0.637E-03    0.131E-02
DAV:  12    -0.608921888388E+03    0.19935E-04   -0.18662E-06  6368   0.354E-03    0.115E-02
DAV:  13    -0.608921869734E+03    0.18653E-04   -0.24282E-06  6384   0.338E-03    0.848E-03
DAV:  14    -0.608921874847E+03   -0.51124E-05   -0.10825E-05  6256   0.247E-03
  15 F= -.60892187E+03 E0= -.60892187E+03  d E =-.179961E-02
 curvature:  -0.82 expect dE=-0.150E-02 dE for cont linesearch -0.404E-04
 ZBRENT: interpolating
 opt :   1.7106  next Energy=  -608.921928 (dE=-0.185E-02)
 bond charge predicted
       N       E                     dE             d eps       ncg     rms          rms(c)
DAV:   1    -0.608921903288E+03   -0.33553E-04   -0.46492E-02 12144   0.482E-01    0.660E-02
DAV:   2    -0.608922016295E+03   -0.11301E-03   -0.21469E-03 13608   0.107E-01    0.670E-02
DAV:   3    -0.608921990722E+03    0.25573E-04   -0.87493E-04 16532   0.509E-02    0.653E-02
DAV:   4    -0.608921873615E+03    0.11711E-03   -0.49511E-04 12468   0.330E-02    0.384E-02
DAV:   5    -0.608922205858E+03   -0.33224E-03   -0.22391E-04 10876   0.259E-02    0.412E-02
DAV:   6    -0.608921812941E+03    0.39292E-03   -0.23122E-04 10688   0.237E-02    0.302E-02
DAV:   7    -0.608922030132E+03   -0.21719E-03   -0.64935E-05  8440   0.174E-02    0.852E-03
DAV:   8    -0.608921998291E+03    0.31841E-04   -0.54259E-06  6736   0.662E-03    0.673E-03
DAV:   9    -0.608922027995E+03   -0.29704E-04   -0.25508E-06  6264   0.501E-03    0.497E-03
DAV:  10    -0.608922006062E+03    0.21933E-04   -0.18240E-07  6100   0.394E-03    0.105E-02
DAV:  11    -0.608922037904E+03   -0.31842E-04   -0.10794E-06  6076   0.328E-03    0.754E-03
DAV:  12    -0.608922050024E+03   -0.12119E-04   -0.53696E-06  5980   0.223E-03    0.224E-02
DAV:  13    -0.608922042465E+03    0.75585E-05   -0.23691E-05  5960   0.243E-03
  16 F= -.60892204E+03 E0= -.60892204E+03  d E =-.196722E-02
 curvature:  -1.08 expect dE=-0.152E-02 dE for cont linesearch -0.118E-05
 trial: gam= 0.56604 g(F)=  0.121E-02 g(S)=  0.204E-03 ort =-0.570E-04 (trialstep = 0.122E+01)
 search vector abs. value=  0.230E-02
 bond charge predicted
       N       E                     dE             d eps       ncg     rms          rms(c)
DAV:   1    -0.608920901094E+03    0.11489E-02   -0.58959E-01 12692   0.186E+00    0.289E-01
DAV:   2    -0.608922669861E+03   -0.17688E-02   -0.40060E-02 13292   0.445E-01    0.289E-01
DAV:   3    -0.608923820581E+03   -0.11507E-02   -0.19490E-02 17224   0.221E-01    0.270E-01
DAV:   4    -0.608923025675E+03    0.79491E-03   -0.10822E-02 16192   0.151E-01    0.198E-01
DAV:   5    -0.608922762807E+03    0.26287E-03   -0.35086E-03 15960   0.117E-01    0.110E-01
DAV:   6    -0.608922200419E+03    0.56239E-03   -0.84044E-04 16456   0.684E-02    0.695E-02
DAV:   7    -0.608922866140E+03   -0.66572E-03   -0.18088E-04 16664   0.418E-02    0.362E-02
DAV:   8    -0.608922789705E+03    0.76435E-04   -0.13256E-05 10472   0.150E-02    0.303E-02
DAV:   9    -0.608922804064E+03   -0.14359E-04   -0.45306E-05  8488   0.140E-02    0.152E-02
DAV:  10    -0.608922860235E+03   -0.56171E-04   -0.15385E-05  7616   0.118E-02    0.836E-03
DAV:  11    -0.608922790956E+03    0.69279E-04   -0.62431E-06  6848   0.842E-03    0.538E-03
DAV:  12    -0.608922849082E+03   -0.58125E-04   -0.35622E-06  6504   0.551E-03    0.327E-03
DAV:  13    -0.608922830155E+03    0.18927E-04   -0.18120E-06  6316   0.382E-03    0.230E-03
DAV:  14    -0.608922821644E+03    0.85111E-05   -0.11522E-06  6268   0.287E-03
  17 F= -.60892282E+03 E0= -.60892282E+03  d E =-.779178E-03
 trial-energy change:   -0.000779  1 .order   -0.000799   -0.001677    0.000079
 step:   1.1616(harm=  1.1616)  dis= 0.00313  next Energy=  -608.922843 (dE=-0.801E-03)
 bond charge predicted
       N       E                     dE             d eps       ncg     rms          rms(c)
DAV:   1    -0.608922822800E+03    0.73545E-05   -0.11968E-03 12500   0.836E-02    0.131E-02
DAV:   2    -0.608922883370E+03   -0.60570E-04   -0.74385E-05 11992   0.204E-02    0.116E-02
DAV:   3    -0.608922817983E+03    0.65387E-04   -0.14654E-05  7488   0.983E-03    0.101E-02
DAV:   4    -0.608922822703E+03   -0.47203E-05   -0.13349E-05  6604   0.697E-03
  18 F= -.60892282E+03 E0= -.60892282E+03  d E =-.780238E-03
 curvature:  -0.97 expect dE=-0.383E-03 dE for cont linesearch -0.494E-06
 trial: gam= 0.28675 g(F)=  0.228E-03 g(S)=  0.167E-03 ort =-0.342E-04 (trialstep = 0.121E+01)
 search vector abs. value=  0.564E-03
 bond charge predicted
       N       E                     dE             d eps       ncg     rms          rms(c)
DAV:   1    -0.608922420922E+03    0.39706E-03   -0.16698E-01 13168   0.979E-01    0.278E-01
DAV:   2    -0.608923642788E+03   -0.12219E-02   -0.10958E-02 13564   0.255E-01    0.156E-01
DAV:   3    -0.608921019305E+03    0.26235E-02   -0.61464E-03 16984   0.158E-01    0.234E-01
DAV:   4    -0.608922216608E+03   -0.11973E-02   -0.79651E-03 16044   0.139E-01    0.133E-01
DAV:   5    -0.608922654760E+03   -0.43815E-03   -0.36019E-03 15444   0.905E-02    0.104E-01
DAV:   6    -0.608921871749E+03    0.78301E-03   -0.16630E-03 16456   0.577E-02    0.510E-02
DAV:   7    -0.608922042295E+03   -0.17055E-03   -0.29809E-05 12040   0.293E-02    0.256E-02
DAV:   8    -0.608922133718E+03   -0.91423E-04   -0.16377E-05  8304   0.101E-02    0.199E-02
DAV:   9    -0.608922140216E+03   -0.64979E-05   -0.13822E-05  6940   0.886E-03
  19 F= -.60892214E+03 E0= -.60892214E+03  d E =0.682487E-03
 trial-energy change:    0.000682  1 .order   -0.000143   -0.000464    0.000178
 step:   0.8711(harm=  0.8711)  dis= 0.00101  next Energy=  -608.922990 (dE=-0.168E-03)
 bond charge predicted
       N       E                     dE             d eps       ncg     rms          rms(c)
DAV:   1    -0.608922438778E+03   -0.30506E-03   -0.12978E-02 13200   0.272E-01    0.786E-02
DAV:   2    -0.608922124326E+03    0.31445E-03   -0.90191E-04 13856   0.725E-02    0.464E-02
DAV:   3    -0.608923078911E+03   -0.95459E-03   -0.77035E-04 15772   0.452E-02    0.765E-02
DAV:   4    -0.608922612578E+03    0.46633E-03   -0.94696E-04 12620   0.404E-02    0.412E-02
DAV:   5    -0.608922402642E+03    0.20994E-03   -0.21417E-04 10900   0.261E-02    0.176E-02
DAV:   6    -0.608922328006E+03    0.74636E-04   -0.45163E-05  9680   0.161E-02    0.136E-02
DAV:   7    -0.608922406879E+03   -0.78873E-04   -0.44850E-06  6864   0.989E-03    0.722E-03
DAV:   8    -0.608922396982E+03    0.98963E-05   -0.37049E-06  6364   0.466E-03
  20 F= -.60892240E+03 E0= -.60892240E+03  d E =0.425721E-03
 curvature:  -0.64 expect dE=-0.693E-04 dE for cont linesearch -0.208E-05
 trial: gam= 0.37068 g(F)=  0.605E-04 g(S)=  0.480E-04 ort =-0.429E-04 (trialstep = 0.114E+01)
 search vector abs. value=  0.154E-03
 reached required accuracy - stopping structural energy minimisation
 writing wavefunctions
