<?xml version="1.0" encoding="ISO-8859-1"?>
<modeling>
 <generator>
  <i name="program" type="string">vasp </i>
  <i name="version" type="string">5.4.4.18Apr17-6-g9f103f2a35  </i>
  <i name="subversion" type="string">(build Oct 23 2017 21:22:35) complex            parallel </i>
  <i name="platform" type="string">LinuxIFC </i>
  <i name="date" type="string">2017 12 27 </i>
  <i name="time" type="string">08:48:49 </i>
 </generator>
 <incar>
  <i type="string" name="PREC">accurate</i>
  <i type="int" name="IBRION">    -1</i>
  <i name="EDIFF">      0.00001000</i>
  <i name="EDIFFG">     -0.01000000</i>
  <i type="int" name="ISIF">     2</i>
  <i name="ENCUT">    500.00000000</i>
  <i type="int" name="ISMEAR">    -5</i>
  <v type="int" name="KPOINT_BSE">    -1     0     0     0</v>
 </incar>
 <structure name="primitive_cell" >
  <crystal>
   <varray name="basis" >
    <v>       7.94790567       3.97103473       0.00000000 </v>
    <v>       7.94790567      -3.97103473       0.00000000 </v>
    <v>      -7.94790567       0.00000000      -3.97103473 </v>
   </varray>
   <i name="volume">    250.66290611 </i>
   <varray name="rec_basis" >
    <v>       0.06290965       0.12591177      -0.12591177 </v>
    <v>       0.06290965      -0.12591177      -0.12591177 </v>
    <v>       0.00000000       0.00000000      -0.25182353 </v>
   </varray>
  </crystal>
  <varray name="positions" >
   <v>       0.12500000      -0.37500000      -0.50000000 </v>
   <v>       0.37611317       0.37388683      -0.50000000 </v>
   <v>      -0.12611317       0.37388683      -0.00222635 </v>
   <v>      -0.12611317      -0.12388683      -0.50000000 </v>
   <v>       0.37611317      -0.12388683       0.00222635 </v>
   <v>       0.25062663      -0.24937337      -0.50000000 </v>
   <v>      -0.00062663       0.49937337      -0.50000000 </v>
   <v>       0.25429222       0.25429222       0.00000000 </v>
   <v>       0.49570778       0.49570778       0.00000000 </v>
   <v>      -0.24570778      -0.24570778       0.00000000 </v>
   <v>      -0.00429222      -0.00429222       0.00000000 </v>
   <v>      -0.37500000       0.12500000      -0.50000000 </v>
   <v>       0.37765336      -0.12234664      -0.50000000 </v>
   <v>      -0.12765336       0.37234664      -0.50000000 </v>
   <v>      -0.49959559       0.00040441      -0.50000000 </v>
   <v>      -0.25040441       0.24959559      -0.50000000 </v>
   <v>      -0.37500000      -0.37500000      -0.50000000 </v>
   <v>       0.12500000      -0.37500000       0.00000000 </v>
   <v>       0.12500000       0.12500000      -0.50000000 </v>
   <v>      -0.37500000       0.12500000       0.00000000 </v>
  </varray>
 </structure>
 <varray name="primitive_index" >
  <v type="int" >        1 </v>
  <v type="int" >        3 </v>
  <v type="int" >        4 </v>
  <v type="int" >        9 </v>
  <v type="int" >       10 </v>
  <v type="int" >        2 </v>
  <v type="int" >       11 </v>
  <v type="int" >       14 </v>
  <v type="int" >       15 </v>
  <v type="int" >       16 </v>
  <v type="int" >       17 </v>
  <v type="int" >       19 </v>
  <v type="int" >       18 </v>
  <v type="int" >       20 </v>
  <v type="int" >        5 </v>
  <v type="int" >        8 </v>
  <v type="int" >        6 </v>
  <v type="int" >        7 </v>
  <v type="int" >       12 </v>
  <v type="int" >       13 </v>
 </varray>
 <kpoints>
  <generation param="Gamma">
   <v type="int" name="divisions">       5        5        5 </v>
   <v name="usershift">      0.00000000       0.00000000       0.00000000 </v>
   <v name="genvec1">      0.20000000      -0.00000000       0.00000000 </v>
   <v name="genvec2">     -0.00000000       0.20000000       0.00000000 </v>
   <v name="genvec3">      0.00000000       0.00000000       0.20000000 </v>
   <v name="shift">      0.00000000       0.00000000       0.00000000 </v>
  </generation>
  <varray name="kpointlist" >
   <v>       0.00000000       0.00000000       0.00000000 </v>
   <v>       0.20000000      -0.00000000       0.00000000 </v>
   <v>       0.40000000      -0.00000000       0.00000000 </v>
   <v>       0.20000000       0.20000000       0.00000000 </v>
   <v>       0.40000000       0.20000000       0.00000000 </v>
   <v>      -0.40000000       0.20000000      -0.00000000 </v>
   <v>      -0.20000000       0.20000000       0.00000000 </v>
   <v>       0.40000000       0.40000000       0.00000000 </v>
   <v>      -0.40000000       0.40000000       0.00000000 </v>
   <v>       0.20000000       0.20000000       0.20000000 </v>
   <v>      -0.20000000       0.20000000       0.20000000 </v>
   <v>      -0.40000000       0.40000000       0.20000000 </v>
   <v>      -0.20000000       0.40000000       0.20000000 </v>
   <v>      -0.40000000      -0.40000000       0.20000000 </v>
   <v>      -0.20000000      -0.40000000       0.20000000 </v>
   <v>      -0.20000000      -0.20000000       0.20000000 </v>
   <v>      -0.40000000       0.40000000       0.40000000 </v>
   <v>      -0.40000000      -0.40000000       0.40000000 </v>
  </varray>
  <varray name="weights" >
   <v>       0.00800000 </v>
   <v>       0.06400000 </v>
   <v>       0.06400000 </v>
   <v>       0.06400000 </v>
   <v>       0.12800000 </v>
   <v>       0.12800000 </v>
   <v>       0.03200000 </v>
   <v>       0.06400000 </v>
   <v>       0.03200000 </v>
   <v>       0.06400000 </v>
   <v>       0.03200000 </v>
   <v>       0.06400000 </v>
   <v>       0.06400000 </v>
   <v>       0.06400000 </v>
   <v>       0.06400000 </v>
   <v>       0.01600000 </v>
   <v>       0.03200000 </v>
   <v>       0.01600000 </v>
  </varray>
  <varray name="tetrahedronlist"  type="int" >
   <v type="int" >        4        1        2        4        7 </v>
   <v type="int" >        8        2        4        6        7 </v>
   <v type="int" >        4        4        6        7       10 </v>
   <v type="int" >        4        2        3        5        6 </v>
   <v type="int" >        4        2        4        5        6 </v>
   <v type="int" >        8        4        5        6       10 </v>
   <v type="int" >       12        3        5        5        6 </v>
   <v type="int" >       16        5        5        6       10 </v>
   <v type="int" >        4        5        6       10       10 </v>
   <v type="int" >        4        3        3        5        6 </v>
   <v type="int" >        8        3        4        5        6 </v>
   <v type="int" >        4        4        5        6        6 </v>
   <v type="int" >        4        5        6        6       10 </v>
   <v type="int" >        4        2        3        4        7 </v>
   <v type="int" >        4        3        4        6        7 </v>
   <v type="int" >        4        4        6        6        7 </v>
   <v type="int" >        4        2        2        4        7 </v>
   <v type="int" >        4        2        4        7       11 </v>
   <v type="int" >        4        4        6        7       11 </v>
   <v type="int" >        4        1        2        2        2 </v>
   <v type="int" >        4        2        2        2        7 </v>
   <v type="int" >        4        2        2        7       11 </v>
   <v type="int" >        4        1        2        2        7 </v>
   <v type="int" >        4        2        2        6        7 </v>
   <v type="int" >        4        2        2        6       11 </v>
   <v type="int" >        4        4        5        8       10 </v>
   <v type="int" >       12        5        8       10       10 </v>
   <v type="int" >        4        8        8       10       10 </v>
   <v type="int" >        4        5        6        9       10 </v>
   <v type="int" >        4        5        8        9       10 </v>
   <v type="int" >        4        8        8        9       10 </v>
   <v type="int" >        4        6        6        9       10 </v>
   <v type="int" >        4        6        9       10       12 </v>
   <v type="int" >        4        8        9       10       12 </v>
   <v type="int" >        4        6        6        6        7 </v>
   <v type="int" >        4        6        6        6        9 </v>
   <v type="int" >        4        6        6        9       12 </v>
   <v type="int" >        4        6        6        7       11 </v>
   <v type="int" >        4        6        6       11       13 </v>
   <v type="int" >        4        6        6       12       13 </v>
   <v type="int" >        4        2        3        7       11 </v>
   <v type="int" >        4        3        6        7       11 </v>
   <v type="int" >        8        3        6       11       13 </v>
   <v type="int" >        8        2        3        6       11 </v>
   <v type="int" >        4        3        5        6       11 </v>
   <v type="int" >        4        3        5       11       13 </v>
   <v type="int" >        4        8        8        8        9 </v>
   <v type="int" >        4        8        8        9       12 </v>
   <v type="int" >        4        8        8       12       14 </v>
   <v type="int" >        4        5        6        9       12 </v>
   <v type="int" >        4        5        8        9       12 </v>
   <v type="int" >        8        5        8       12       14 </v>
   <v type="int" >        8        5        6       12       13 </v>
   <v type="int" >        4        5       12       13       15 </v>
   <v type="int" >        4        5       12       14       15 </v>
   <v type="int" >        4        3        3        6       13 </v>
   <v type="int" >        8        3        5        6       13 </v>
   <v type="int" >        8        3        5       13       15 </v>
   <v type="int" >       12        3        3        5       13 </v>
   <v type="int" >        4        3        4        5       13 </v>
   <v type="int" >        4        3        4       13       15 </v>
   <v type="int" >        4        4        5        8       14 </v>
   <v type="int" >        8        4        5       14       15 </v>
   <v type="int" >        4        4       14       15       16 </v>
   <v type="int" >        4        2        3        5       15 </v>
   <v type="int" >        4        2        4        5       15 </v>
   <v type="int" >        8        2        4       15       16 </v>
   <v type="int" >        8        2        3        4       15 </v>
   <v type="int" >        4        2        2        4       15 </v>
   <v type="int" >        4        2        2       15       16 </v>
   <v type="int" >        4        1        2        4       16 </v>
   <v type="int" >        4        1        2        2       16 </v>
   <v type="int" >        4        1        2        7       16 </v>
   <v type="int" >        4        6        7        9       10 </v>
   <v type="int" >        8        6        8        9       10 </v>
   <v type="int" >        4        8        9       10       10 </v>
   <v type="int" >        8        5        6        8       10 </v>
   <v type="int" >        4        6        8       10       10 </v>
   <v type="int" >        8        8       10       10       10 </v>
   <v type="int" >        8        5        5        8       10 </v>
   <v type="int" >        4        4        5        5        6 </v>
   <v type="int" >        4        5        5        6       13 </v>
   <v type="int" >        4        2        3        4       11 </v>
   <v type="int" >        4        3        4        6       11 </v>
   <v type="int" >        4        3        6       11       12 </v>
   <v type="int" >        4        3       11       12       13 </v>
   <v type="int" >        4        2        6        6        7 </v>
   <v type="int" >        4        2        6        6       11 </v>
   <v type="int" >        4        6        6       11       12 </v>
   <v type="int" >        4        6        6        7        9 </v>
   <v type="int" >        4        6        6        8        9 </v>
   <v type="int" >        4        6        6        8       12 </v>
   <v type="int" >        4        5        8       10       14 </v>
   <v type="int" >        4        5        6       10       12 </v>
   <v type="int" >        4        5        8       10       12 </v>
   <v type="int" >        4        5       12       13       17 </v>
   <v type="int" >        4        5       12       14       17 </v>
   <v type="int" >        4        6       11       13       13 </v>
   <v type="int" >        4        6       12       13       13 </v>
   <v type="int" >        4       12       13       13       17 </v>
   <v type="int" >        4       11       12       13       13 </v>
   <v type="int" >        4       12       13       13       14 </v>
   <v type="int" >        4       13       13       14       17 </v>
   <v type="int" >        4        5        6       11       12 </v>
   <v type="int" >        4        5       11       12       13 </v>
   <v type="int" >        8        5       12       13       14 </v>
   <v type="int" >        8        5        6        8       12 </v>
   <v type="int" >        4        5        5        8       12 </v>
   <v type="int" >        4        5        5       12       14 </v>
   <v type="int" >        4        8       12       14       14 </v>
   <v type="int" >        4       12       14       14       17 </v>
   <v type="int" >        4       14       14       17       18 </v>
   <v type="int" >        4       12       13       15       17 </v>
   <v type="int" >        4       12       14       15       17 </v>
   <v type="int" >        8       14       15       17       18 </v>
   <v type="int" >        8       13       14       15       17 </v>
   <v type="int" >        4       14       15       15       17 </v>
   <v type="int" >        4       15       15       17       18 </v>
   <v type="int" >        4        4        5       13       14 </v>
   <v type="int" >        4        4       13       14       15 </v>
   <v type="int" >        4        4       14       15       15 </v>
   <v type="int" >        4        4        5        5       14 </v>
   <v type="int" >        4        3        4        5       14 </v>
   <v type="int" >        4        3        4       14       15 </v>
   <v type="int" >        4       14       15       16       18 </v>
   <v type="int" >        4       15       15       16       18 </v>
   <v type="int" >        4        4       15       16       18 </v>
   <v type="int" >        4        2        4       15       15 </v>
   <v type="int" >        4        2       15       15       16 </v>
   <v type="int" >        4        2        3        6       15 </v>
   <v type="int" >        4        2        4        6       15 </v>
   <v type="int" >        4        2        4        7       16 </v>
   <v type="int" >        4        4        6        7        9 </v>
   <v type="int" >        4        8        9        9       10 </v>
   <v type="int" >        4        4        6        9       10 </v>
   <v type="int" >        4        5        5        6        8 </v>
   <v type="int" >        4        3        5        6       15 </v>
   <v type="int" >        4        4        5        6       15 </v>
   <v type="int" >        4        3        5        5       13 </v>
   <v type="int" >        4        3        5       13       14 </v>
   <v type="int" >        4        3       13       14       15 </v>
   <v type="int" >        4        3        5        6       12 </v>
   <v type="int" >        4        3        5       12       13 </v>
   <v type="int" >        4        5        8       12       12 </v>
   <v type="int" >        4        5       12       12       14 </v>
   <v type="int" >        4        6        8        8        9 </v>
   <v type="int" >        4        6        8        8       12 </v>
   <v type="int" >        2        8        8       12       12 </v>
   <v type="int" >        2        8        8        9        9 </v>
   <v type="int" >        4        4        5       10       14 </v>
   <v type="int" >        4        4       14       15       18 </v>
   <v type="int" >        4        5       13       15       17 </v>
   <v type="int" >        4        5       14       15       17 </v>
   <v type="int" >        4       14       15       17       17 </v>
   <v type="int" >        4       15       17       17       18 </v>
   <v type="int" >        4       12       13       14       14 </v>
   <v type="int" >        4       13       14       14       17 </v>
   <v type="int" >        2       14       14       17       17 </v>
   <v type="int" >        2       12       12       14       14 </v>
   <v type="int" >        4       14       17       18       18 </v>
   <v type="int" >        2       17       17       18       18 </v>
  </varray>
  <i name="volumeweight">      0.00133333 </i>
 </kpoints>
 <parameters>
  <separator name="general" >
   <i type="string" name="SYSTEM">unknown system</i>
   <i type="logical" name="LCOMPAT"> F  </i>
  </separator>
  <separator name="electronic" >
   <i type="string" name="PREC">accura</i>
   <i name="ENMAX">    500.00000000</i>
   <i name="ENAUG">    605.39200000</i>
   <i name="EDIFF">      0.00001000</i>
   <i type="int" name="IALGO">    38</i>
   <i type="int" name="IWAVPR">    10</i>
   <i type="int" name="NBANDS">    96</i>
   <i name="NELECT">    161.00000000</i>
   <i type="int" name="TURBO">     0</i>
   <i type="int" name="IRESTART">     0</i>
   <i type="int" name="NREBOOT">     0</i>
   <i type="int" name="NMIN">     0</i>
   <i name="EREF">      0.00000000</i>
   <separator name="electronic smearing" >
    <i type="int" name="ISMEAR">    -5</i>
    <i name="SIGMA">      0.20000000</i>
    <i name="KSPACING">      0.50000000</i>
    <i type="logical" name="KGAMMA"> T  </i>
   </separator>
   <separator name="electronic projectors" >
    <i type="logical" name="LREAL"> F  </i>
    <v name="ROPT">      0.00000000      0.00000000      0.00000000      0.00000000</v>
    <i type="int" name="LMAXPAW">  -100</i>
    <i type="int" name="LMAXMIX">     2</i>
    <i type="logical" name="NLSPLINE"> F  </i>
   </separator>
   <separator name="electronic startup" >
    <i type="int" name="ISTART">     1</i>
    <i type="int" name="ICHARG">     0</i>
    <i type="int" name="INIWAV">     1</i>
   </separator>
   <separator name="electronic spin" >
    <i type="int" name="ISPIN">     1</i>
    <i type="logical" name="LNONCOLLINEAR"> F  </i>
    <v name="MAGMOM">      1.00000000      1.00000000      1.00000000      1.00000000      1.00000000      1.00000000      1.00000000      1.00000000      1.00000000      1.00000000      1.00000000      1.00000000      1.00000000      1.00000000      1.00000000      1.00000000      1.00000000      1.00000000      1.00000000      1.00000000
</v>
    <i name="NUPDOWN">     -1.00000000</i>
    <i type="logical" name="LSORBIT"> F  </i>
    <v name="SAXIS">      0.00000000      0.00000000      1.00000000</v>
    <i type="logical" name="LSPIRAL"> F  </i>
    <v name="QSPIRAL">      0.00000000      0.00000000      0.00000000</v>
    <i type="logical" name="LZEROZ"> F  </i>
   </separator>
   <separator name="electronic exchange-correlation" >
    <i type="logical" name="LASPH"> F  </i>
    <i type="logical" name="LMETAGGA"> F  </i>
   </separator>
   <separator name="electronic convergence" >
    <i type="int" name="NELM">    60</i>
    <i type="int" name="NELMDL">     0</i>
    <i type="int" name="NELMIN">     2</i>
    <i name="ENINI">    500.00000000</i>
    <separator name="electronic convergence detail" >
     <i type="logical" name="LDIAG"> T  </i>
     <i type="logical" name="LSUBROT"> F  </i>
     <i name="WEIMIN">      0.00000000</i>
     <i name="EBREAK">      0.00000003</i>
     <i name="DEPER">      0.30000000</i>
     <i type="int" name="NRMM">     4</i>
     <i name="TIME">      0.40000000</i>
    </separator>
   </separator>
   <separator name="electronic mixer" >
    <i name="AMIX">      0.40000000</i>
    <i name="BMIX">      1.00000000</i>
    <i name="AMIN">      0.10000000</i>
    <i name="AMIX_MAG">      1.60000000</i>
    <i name="BMIX_MAG">      1.00000000</i>
    <separator name="electronic mixer details" >
     <i type="int" name="IMIX">     4</i>
     <i type="logical" name="MIXFIRST"> F  </i>
     <i type="int" name="MAXMIX">   -45</i>
     <i name="WC">    100.00000000</i>
     <i type="int" name="INIMIX">     1</i>
     <i type="int" name="MIXPRE">     1</i>
     <i type="int" name="MREMOVE">     5</i>
    </separator>
   </separator>
   <separator name="electronic dipolcorrection" >
    <i type="logical" name="LDIPOL"> F  </i>
    <i type="logical" name="LMONO"> F  </i>
    <i type="int" name="IDIPOL">     0</i>
    <i name="EPSILON">      1.00000000</i>
    <v name="DIPOL">   -100.00000000   -100.00000000   -100.00000000</v>
    <i name="EFIELD">      0.00000000</i>
   </separator>
  </separator>
  <separator name="grids" >
   <i type="int" name="NGX">    70</i>
   <i type="int" name="NGY">    70</i>
   <i type="int" name="NGZ">    70</i>
   <i type="int" name="NGXF">   140</i>
   <i type="int" name="NGYF">   140</i>
   <i type="int" name="NGZF">   140</i>
   <i type="logical" name="ADDGRID"> F  </i>
  </separator>
  <separator name="ionic" >
   <i type="int" name="NSW">     0</i>
   <i type="int" name="IBRION">    -1</i>
   <i type="int" name="MDALGO">     0</i>
   <i type="int" name="ISIF">     2</i>
   <i name="PSTRESS">      0.00000000</i>
   <i name="EDIFFG">     -0.01000000</i>
   <i type="int" name="NFREE">     0</i>
   <i name="POTIM">      0.50000000</i>
   <i name="SMASS">     -3.00000000</i>
   <i name="SCALEE">      1.00000000</i>
  </separator>
  <separator name="ionic md" >
   <i name="TEBEG">      0.00010000</i>
   <i name="TEEND">      0.00010000</i>
   <i type="int" name="NBLOCK">     1</i>
   <i type="int" name="KBLOCK">     1</i>
   <i type="int" name="NPACO">   256</i>
   <i name="APACO">     16.00000000</i>
  </separator>
  <separator name="symmetry" >
   <i type="int" name="ISYM">     2</i>
   <i name="SYMPREC">      0.00001000</i>
  </separator>
  <separator name="dos" >
   <i type="int" name="LORBIT">     0</i>
   <v name="RWIGS">     -1.00000000     -1.00000000     -1.00000000     -1.00000000</v>
   <i type="int" name="NEDOS">   301</i>
   <i name="EMIN">     10.00000000</i>
   <i name="EMAX">    -10.00000000</i>
   <i name="EFERMI">      0.00000000</i>
  </separator>
  <separator name="writing" >
   <i type="int" name="NWRITE">     2</i>
   <i type="logical" name="LWAVE"> T  </i>
   <i type="logical" name="LDOWNSAMPLE"> F  </i>
   <i type="logical" name="LCHARG"> T  </i>
   <i type="logical" name="LPARD"> F  </i>
   <i type="logical" name="LVTOT"> F  </i>
   <i type="logical" name="LVHAR"> F  </i>
   <i type="logical" name="LELF"> F  </i>
   <i type="logical" name="LOPTICS"> F  </i>
   <v name="STM">      0.00000000      0.00000000      0.00000000      0.00000000      0.00000000      0.00000000      0.00000000</v>
  </separator>
  <separator name="performance" >
   <i type="int" name="NPAR">     4</i>
   <i type="int" name="NSIM">     4</i>
   <i type="int" name="NBLK">    -1</i>
   <i type="logical" name="LPLANE"> T  </i>
   <i type="logical" name="LSCALAPACK"> T  </i>
   <i type="logical" name="LSCAAWARE"> F  </i>
   <i type="logical" name="LSCALU"> F  </i>
   <i type="logical" name="LASYNC"> F  </i>
   <i type="logical" name="LORBITALREAL"> F  </i>
  </separator>
  <separator name="miscellaneous" >
   <i type="int" name="IDIOT">     3</i>
   <i type="int" name="ISPECIAL">     0</i>
   <i type="logical" name="LMUSIC"> F  </i>
   <v name="POMASS">     92.91000000     16.00000000     87.62000000     47.88000000</v>
   <v name="DARWINR">      0.00000000      0.00000000      0.00000000      0.00000000</v>
   <v name="DARWINV">      1.00000000      1.00000000      1.00000000      1.00000000</v>
   <i type="logical" name="LCORR"> T  </i>
  </separator>
  <i type="logical" name="GGA_COMPAT"> T  </i>
  <i type="logical" name="LBERRY"> F  </i>
  <i type="int" name="ICORELEVEL">     0</i>
  <i type="logical" name="LDAU"> F  </i>
  <i type="int" name="I_CONSTRAINED_M">     0</i>
  <separator name="electronic exchange-correlation" >
   <i type="string" name="GGA">--</i>
   <i type="int" name="VOSKOWN">     0</i>
   <i type="logical" name="LHFCALC"> F  </i>
   <i type="string" name="PRECFOCK"></i>
   <i type="logical" name="LSYMGRAD"> F  </i>
   <i type="logical" name="LHFONE"> F  </i>
   <i type="logical" name="LRHFCALC"> F  </i>
   <i type="logical" name="LTHOMAS"> F  </i>
   <i type="logical" name="LMODELHF"> F  </i>
   <i name="ENCUT4O">     -1.00000000</i>
   <i type="int" name="EXXOEP">     0</i>
   <i type="int" name="FOURORBIT">     0</i>
   <i name="AEXX">      0.00000000</i>
   <i name="HFALPHA">      0.00000000</i>
   <i name="MCALPHA">      0.00000000</i>
   <i name="ALDAX">      1.00000000</i>
   <i name="AGGAX">      1.00000000</i>
   <i name="ALDAC">      1.00000000</i>
   <i name="AGGAC">      1.00000000</i>
   <i type="int" name="NKREDX">     1</i>
   <i type="int" name="NKREDY">     1</i>
   <i type="int" name="NKREDZ">     1</i>
   <i type="logical" name="SHIFTRED"> F  </i>
   <i type="logical" name="ODDONLY"> F  </i>
   <i type="logical" name="EVENONLY"> F  </i>
   <i type="int" name="LMAXFOCK">     0</i>
   <i type="int" name="NMAXFOCKAE">     0</i>
   <i type="logical" name="LFOCKAEDFT"> F  </i>
   <i name="HFSCREEN">      0.00000000</i>
   <i name="HFSCREENC">      0.00000000</i>
   <i type="int" name="NBANDSGWLOW">     0</i>
  </separator>
  <separator name="vdW DFT" >
   <i type="logical" name="LUSE_VDW"> F  </i>
   <i name="Zab_VDW">     -0.84910000</i>
   <i name="PARAM1">      0.12340000</i>
   <i name="PARAM2">      1.00000000</i>
   <i name="PARAM3">      0.00000000</i>
  </separator>
  <separator name="model GW" >
   <i type="int" name="MODEL_GW">     0</i>
   <i name="MODEL_EPS0">      7.51988718</i>
   <i name="MODEL_ALPHA">      1.00000000</i>
  </separator>
  <separator name="linear response parameters" >
   <i type="logical" name="LEPSILON"> F  </i>
   <i type="logical" name="LRPA"> F  </i>
   <i type="logical" name="LNABLA"> F  </i>
   <i type="logical" name="LVEL"> F  </i>
   <i type="int" name="KINTER">     0</i>
   <i name="CSHIFT">      0.10000000</i>
   <i name="OMEGAMAX">     -1.00000000</i>
   <i name="DEG_THRESHOLD">      0.00200000</i>
   <i name="RTIME">     -0.10000000</i>
   <i name="WPLASMAI">      0.00000000</i>
   <v name="DFIELD">      0.00000000      0.00000000      0.00000000</v>
   <v name="WPLASMA">      0.00000000      0.00000000      0.00000000      0.00000000      0.00000000      0.00000000      0.00000000      0.00000000      0.00000000</v>
  </separator>
  <separator name="orbital magnetization" >
   <i type="logical" name="NUCIND"> F  </i>
   <v name="MAGPOS">      0.00000000      0.00000000      0.00000000</v>
   <i type="logical" name="LNICSALL"> T  </i>
   <i type="logical" name="ORBITALMAG"> F  </i>
   <i type="logical" name="LMAGBLOCH"> F  </i>
   <i type="logical" name="LCHIMAG"> F  </i>
   <i type="logical" name="LGAUGE"> T  </i>
   <i type="int" name="MAGATOM">     0</i>
   <v name="MAGDIPOL">      0.00000000      0.00000000      0.00000000</v>
   <v name="AVECCONST">      0.00000000      0.00000000      0.00000000</v>
  </separator>
  <separator name="response functions" >
   <i type="logical" name="LADDER"> F  </i>
   <i type="logical" name="LRPAFORCE"> F  </i>
   <i type="logical" name="LFXC"> F  </i>
   <i type="logical" name="LHARTREE"> T  </i>
   <i type="int" name="IBSE">     0</i>
   <v type="int" name="KPOINT">    -1     0     0     0</v>
   <i type="logical" name="LTCTE"> F  </i>
   <i type="logical" name="LTETE"> F  </i>
   <i type="logical" name="LTRIPLET"> F  </i>
   <i type="logical" name="LFXCEPS"> F  </i>
   <i type="logical" name="LFXHEG"> F  </i>
   <i type="int" name="NATURALO">     2</i>
   <i type="logical" name="L2ORDER"> F  </i>
   <i type="logical" name="LMP2LT"> F  </i>
   <i type="logical" name="LUSEW"> F  </i>
   <i name="ENCUTGW">     -2.00000000</i>
   <i name="ENCUTGWSOFT">     -2.00000000</i>
   <i name="ENCUTLF">     -1.00000000</i>
   <i type="int" name="LMAXMP2">    -1</i>
   <i name="SCISSOR">      0.00000000</i>
   <i type="int" name="NOMEGA">     0</i>
   <i type="int" name="NOMEGAR">     0</i>
   <i type="int" name="NBANDSGW">    -1</i>
   <i type="int" name="NBANDSO">    -1</i>
   <i type="int" name="NBANDSV">    -1</i>
   <i type="int" name="NELM">     1</i>
   <i type="int" name="NELMHF">     1</i>
   <i type="int" name="DIM">     3</i>
   <i type="int" name="ANTIRES">     0</i>
   <i name="OMEGAMAX">    -30.00000000</i>
   <i name="OMEGAMIN">    -30.00000000</i>
   <i name="OMEGATL">   -200.00000000</i>
   <i type="int" name="OMEGAGRID">   140</i>
   <i name="CSHIFT">     -0.10000000</i>
   <i type="logical" name="SELFENERGY"> F  </i>
   <i type="logical" name="LSPECTRAL"> F  </i>
   <i type="logical" name="LSPECTRALGW"> F  </i>
   <i type="logical" name="LSINGLES"> F  </i>
   <i type="logical" name="LFERMIGW"> F  </i>
   <i type="logical" name="ODDONLYGW"> F  </i>
   <i type="logical" name="EVENONLYGW"> F  </i>
   <i type="int" name="NKREDLFX">     1</i>
   <i type="int" name="NKREDLFY">     1</i>
   <i type="int" name="NKREDLFZ">     1</i>
   <i type="int" name="MAXMEM">  2800</i>
   <i type="int" name="TELESCOPE">     0</i>
   <i type="int" name="TAUPAR">     1</i>
   <i type="int" name="OMEGAPAR">    -1</i>
   <i name="LAMBDA">      1.00000000</i>
  </separator>
  <separator name="External order field" >
   <i name="OFIELD_KAPPA">      0.00000000</i>
   <v name="OFIELD_K">      0.00000000      0.00000000      0.00000000</v>
   <i name="OFIELD_Q6_NEAR">      0.00000000</i>
   <i name="OFIELD_Q6_FAR">      0.00000000</i>
   <i name="OFIELD_A">      0.00000000</i>
  </separator>
 </parameters>
 <atominfo>
  <atoms>      20 </atoms>
  <types>       4 </types>
  <array name="atoms" >
   <dimension dim="1">ion</dimension>
   <field type="string">element</field>
   <field type="int">atomtype</field>
   <set>
    <rc><c>Nb</c><c>   1</c></rc>
    <rc><c>O </c><c>   2</c></rc>
    <rc><c>O </c><c>   2</c></rc>
    <rc><c>O </c><c>   2</c></rc>
    <rc><c>O </c><c>   2</c></rc>
    <rc><c>O </c><c>   2</c></rc>
    <rc><c>O </c><c>   2</c></rc>
    <rc><c>O </c><c>   2</c></rc>
    <rc><c>O </c><c>   2</c></rc>
    <rc><c>O </c><c>   2</c></rc>
    <rc><c>O </c><c>   2</c></rc>
    <rc><c>O </c><c>   2</c></rc>
    <rc><c>O </c><c>   2</c></rc>
    <rc><c>Sr</c><c>   3</c></rc>
    <rc><c>Sr</c><c>   3</c></rc>
    <rc><c>Sr</c><c>   3</c></rc>
    <rc><c>Sr</c><c>   3</c></rc>
    <rc><c>Ti</c><c>   4</c></rc>
    <rc><c>Ti</c><c>   4</c></rc>
    <rc><c>Ti</c><c>   4</c></rc>
   </set>
  </array>
  <array name="atomtypes" >
   <dimension dim="1">type</dimension>
   <field type="int">atomspertype</field>
   <field type="string">element</field>
   <field>mass</field>
   <field>valence</field>
   <field type="string">pseudopotential</field>
   <set>
    <rc><c>   1</c><c>Nb</c><c>     92.91000000</c><c>     13.00000000</c><c>  PAW_PBE Nb_sv 25May2007               </c></rc>
    <rc><c>  12</c><c>O </c><c>     16.00000000</c><c>      6.00000000</c><c>  PAW_PBE O 08Apr2002                   </c></rc>
    <rc><c>   4</c><c>Sr</c><c>     87.62000000</c><c>     10.00000000</c><c>  PAW_PBE Sr_sv 07Sep2000               </c></rc>
    <rc><c>   3</c><c>Ti</c><c>     47.88000000</c><c>     12.00000000</c><c>  PAW_PBE Ti_sv 26Sep2005               </c></rc>
   </set>
  </array>
 </atominfo>
 <structure name="initialpos" >
  <crystal>
   <varray name="basis" >
    <v>       7.94790567       3.97103473       0.00000000 </v>
    <v>       7.94790567      -3.97103473       0.00000000 </v>
    <v>      -7.94790567       0.00000000      -3.97103473 </v>
   </varray>
   <i name="volume">    250.66290611 </i>
   <varray name="rec_basis" >
    <v>       0.06290965       0.12591177      -0.12591177 </v>
    <v>       0.06290965      -0.12591177      -0.12591177 </v>
    <v>       0.00000000       0.00000000      -0.25182353 </v>
   </varray>
  </crystal>
  <varray name="positions" >
   <v>       0.12500000       0.62500000       0.50000000 </v>
   <v>       0.25062663       0.75062663       0.50000000 </v>
   <v>       0.37611317       0.37388683       0.50000000 </v>
   <v>       0.87388683       0.37388683       0.99777365 </v>
   <v>       0.50040441       0.00040441       0.50000000 </v>
   <v>       0.62500000       0.62500000       0.50000000 </v>
   <v>       0.12500000       0.62500000       0.00000000 </v>
   <v>       0.74959559       0.24959559       0.50000000 </v>
   <v>       0.87388683       0.87611317       0.50000000 </v>
   <v>       0.37611317       0.87611317       0.00222635 </v>
   <v>       0.99937337       0.49937337       0.50000000 </v>
   <v>       0.12500000       0.12500000       0.50000000 </v>
   <v>       0.62500000       0.12500000       0.00000000 </v>
   <v>       0.25429222       0.25429222       0.00000000 </v>
   <v>       0.49570778       0.49570778       0.00000000 </v>
   <v>       0.75429222       0.75429222       0.00000000 </v>
   <v>       0.99570778       0.99570778       0.00000000 </v>
   <v>       0.37765336       0.87765336       0.50000000 </v>
   <v>       0.62500000       0.12500000       0.50000000 </v>
   <v>       0.87234664       0.37234664       0.50000000 </v>
  </varray>
 </structure>
 <calculation>
  <scstep>
   <time name="dav">    2.84    2.85</time>
   <time name="total">    3.22    3.24</time>
   <energy>
    <i name="alphaZ">    893.43933167 </i>
    <i name="ewald"> -11529.93732372 </i>
    <i name="hartreedc">  -3481.71407805 </i>
    <i name="XCdc">    725.97044212 </i>
    <i name="pawpsdc">  18477.12990066 </i>
    <i name="pawaedc"> -18377.94091214 </i>
    <i name="eentropy">      0.00000000 </i>
    <i name="bandstr">  -1748.45359734 </i>
    <i name="atom">  14879.83824494 </i>
    <i name="e_fr_energy">   -161.66799187 </i>
    <i name="e_wo_entrp">   -161.66799187 </i>
    <i name="e_0_energy">   -161.66799187 </i>
   </energy>
  </scstep>
  <scstep>
   <time name="dav">    2.56    2.56</time>
   <time name="total">    2.67    2.67</time>
   <energy>
    <i name="alphaZ">    893.43933167 </i>
    <i name="ewald"> -11529.93732372 </i>
    <i name="hartreedc">  -3481.74395165 </i>
    <i name="XCdc">    725.97235149 </i>
    <i name="pawpsdc">  18475.16847885 </i>
    <i name="pawaedc"> -18375.97975077 </i>
    <i name="eentropy">      0.00000000 </i>
    <i name="bandstr">  -1748.42538204 </i>
    <i name="atom">  14879.83824494 </i>
    <i name="e_fr_energy">   -161.66800122 </i>
    <i name="e_wo_entrp">   -161.66800122 </i>
    <i name="e_0_energy">   -161.66800122 </i>
   </energy>
  </scstep>
  <structure>
   <crystal>
    <varray name="basis" >
     <v>       7.94790567       3.97103473       0.00000000 </v>
     <v>       7.94790567      -3.97103473       0.00000000 </v>
     <v>      -7.94790567       0.00000000      -3.97103473 </v>
    </varray>
    <i name="volume">    250.66290611 </i>
    <varray name="rec_basis" >
     <v>       0.06290965       0.12591177      -0.12591177 </v>
     <v>       0.06290965      -0.12591177      -0.12591177 </v>
     <v>       0.00000000       0.00000000      -0.25182353 </v>
    </varray>
   </crystal>
   <varray name="positions" >
    <v>       0.12500000       0.62500000       0.50000000 </v>
    <v>       0.25062663       0.75062663       0.50000000 </v>
    <v>       0.37611317       0.37388683       0.50000000 </v>
    <v>       0.87388683       0.37388683       0.99777365 </v>
    <v>       0.50040441       0.00040441       0.50000000 </v>
    <v>       0.62500000       0.62500000       0.50000000 </v>
    <v>       0.12500000       0.62500000       0.00000000 </v>
    <v>       0.74959559       0.24959559       0.50000000 </v>
    <v>       0.87388683       0.87611317       0.50000000 </v>
    <v>       0.37611317       0.87611317       0.00222635 </v>
    <v>       0.99937337       0.49937337       0.50000000 </v>
    <v>       0.12500000       0.12500000       0.50000000 </v>
    <v>       0.62500000       0.12500000       0.00000000 </v>
    <v>       0.25429222       0.25429222       0.00000000 </v>
    <v>       0.49570778       0.49570778       0.00000000 </v>
    <v>       0.75429222       0.75429222       0.00000000 </v>
    <v>       0.99570778       0.99570778       0.00000000 </v>
    <v>       0.37765336       0.87765336       0.50000000 </v>
    <v>       0.62500000       0.12500000       0.50000000 </v>
    <v>       0.87234664       0.37234664       0.50000000 </v>
   </varray>
  </structure>
  <varray name="forces" >
   <v>      -0.00000000       0.00000000      -0.00000000 </v>
   <v>       0.00247803       0.00000000      -0.00000000 </v>
   <v>      -0.00000000      -0.00150177      -0.00000000 </v>
   <v>      -0.00000000       0.00000000      -0.00150177 </v>
   <v>      -0.00725397       0.00000000      -0.00000000 </v>
   <v>      -0.00000000       0.00000000      -0.00000000 </v>
   <v>      -0.00000000       0.00000000      -0.00000000 </v>
   <v>       0.00725397       0.00000000      -0.00000000 </v>
   <v>      -0.00000000       0.00150177      -0.00000000 </v>
   <v>      -0.00000000       0.00000000       0.00150177 </v>
   <v>      -0.00247803       0.00000000      -0.00000000 </v>
   <v>      -0.00000000      -0.00000000      -0.00000000 </v>
   <v>      -0.00000000      -0.00000000      -0.00000000 </v>
   <v>      -0.00658945       0.00000000      -0.00000000 </v>
   <v>       0.00658945       0.00000000      -0.00000000 </v>
   <v>      -0.00658945       0.00000000      -0.00000000 </v>
   <v>       0.00658945       0.00000000      -0.00000000 </v>
   <v>      -0.00498872       0.00000000      -0.00000000 </v>
   <v>      -0.00000000      -0.00000000      -0.00000000 </v>
   <v>       0.00498872       0.00000000      -0.00000000 </v>
  </varray>
  <varray name="stress" >
   <v>       0.92780072       0.00000000       0.00000000 </v>
   <v>      -0.00000000       0.96226005      -0.00000000 </v>
   <v>      -0.00000000       0.00000000       0.96226005 </v>
  </varray>
  <energy>
   <i name="e_fr_energy">   -161.66800122 </i>
   <i name="e_wo_entrp">   -161.66800122 </i>
   <i name="e_0_energy">      0.00000000 </i>
  </energy>
  <time name="totalsc">   10.66   11.94</time>
  <eigenvalues>
   <array>
    <dimension dim="1">band</dimension>
    <dimension dim="2">kpoint</dimension>
    <dimension dim="3">spin</dimension>
    <field>eigene</field>
    <field>occ</field>
    <set>
     <set comment="spin 1">
      <set comment="kpoint 1">
       <r>  -52.0633    1.0000 </r>
       <r>  -52.0609    1.0000 </r>
       <r>  -52.0299    1.0000 </r>
       <r>  -50.4828    1.0000 </r>
       <r>  -28.9433    1.0000 </r>
       <r>  -28.9377    1.0000 </r>
       <r>  -28.9054    1.0000 </r>
       <r>  -28.8995    1.0000 </r>
       <r>  -28.3694    1.0000 </r>
       <r>  -28.3694    1.0000 </r>
       <r>  -28.3300    1.0000 </r>
       <r>  -28.3238    1.0000 </r>
       <r>  -28.3177    1.0000 </r>
       <r>  -28.3177    1.0000 </r>
       <r>  -28.3117    1.0000 </r>
       <r>  -28.3117    1.0000 </r>
       <r>  -28.2862    1.0000 </r>
       <r>  -26.6869    1.0000 </r>
       <r>  -26.6869    1.0000 </r>
       <r>  -26.6823    1.0000 </r>
       <r>  -13.5114    1.0000 </r>
       <r>  -13.2315    1.0000 </r>
       <r>  -12.6661    1.0000 </r>
       <r>  -12.5813    1.0000 </r>
       <r>  -12.2570    1.0000 </r>
       <r>  -12.2554    1.0000 </r>
       <r>  -12.2554    1.0000 </r>
       <r>  -12.2356    1.0000 </r>
       <r>  -12.2314    1.0000 </r>
       <r>  -12.2314    1.0000 </r>
       <r>  -12.1399    1.0000 </r>
       <r>  -11.9699    1.0000 </r>
       <r>  -11.0369    1.0000 </r>
       <r>  -10.9560    1.0000 </r>
       <r>  -10.9240    1.0000 </r>
       <r>  -10.9240    1.0000 </r>
       <r>  -10.9178    1.0000 </r>
       <r>  -10.8826    1.0000 </r>
       <r>  -10.8826    1.0000 </r>
       <r>  -10.8558    1.0000 </r>
       <r>  -10.8558    1.0000 </r>
       <r>  -10.6824    1.0000 </r>
       <r>  -10.6824    1.0000 </r>
       <r>  -10.3840    1.0000 </r>
       <r>   -0.7606    1.0000 </r>
       <r>   -0.6356    1.0000 </r>
       <r>   -0.4215    1.0000 </r>
       <r>   -0.1875    1.0000 </r>
       <r>   -0.1803    1.0000 </r>
       <r>    0.1841    1.0000 </r>
       <r>    0.2865    1.0000 </r>
       <r>    0.3276    1.0000 </r>
       <r>    0.3276    1.0000 </r>
       <r>    0.8602    1.0000 </r>
       <r>    0.8760    1.0000 </r>
       <r>    0.8760    1.0000 </r>
       <r>    1.0790    1.0000 </r>
       <r>    1.3584    1.0000 </r>
       <r>    1.3584    1.0000 </r>
       <r>    1.3589    1.0000 </r>
       <r>    1.3739    1.0000 </r>
       <r>    1.3739    1.0000 </r>
       <r>    1.6180    1.0000 </r>
       <r>    1.7232    1.0000 </r>
       <r>    1.7232    1.0000 </r>
       <r>    2.0922    1.0000 </r>
       <r>    2.8350    1.0000 </r>
       <r>    2.8350    1.0000 </r>
       <r>    2.8723    1.0000 </r>
       <r>    3.1537    1.0000 </r>
       <r>    3.1537    1.0000 </r>
       <r>    3.3218    1.0000 </r>
       <r>    3.3218    1.0000 </r>
       <r>    3.3771    1.0000 </r>
       <r>    3.3771    1.0000 </r>
       <r>    3.5931    1.0000 </r>
       <r>    3.6531    1.0000 </r>
       <r>    3.6531    1.0000 </r>
       <r>    3.8005    1.0000 </r>
       <r>    4.0386    1.0000 </r>
       <r>    5.9853    1.0000 </r>
       <r>    6.0628    1.1043 </r>
       <r>    6.0628    1.0990 </r>
       <r>    6.2809    0.7136 </r>
       <r>    8.0071    0.0000 </r>
       <r>    8.0071    0.0000 </r>
       <r>    8.2346    0.0000 </r>
       <r>    8.2346    0.0000 </r>
       <r>    8.4751    0.0000 </r>
       <r>    8.4917    0.0000 </r>
       <r>    8.5473    0.0000 </r>
       <r>    8.5473    0.0000 </r>
       <r>    8.6520    0.0000 </r>
       <r>    8.9152    0.0000 </r>
       <r>    8.9273    0.0000 </r>
       <r>    9.3211    0.0000 </r>
      </set>
      <set comment="kpoint 2">
       <r>  -52.0631    1.0000 </r>
       <r>  -52.0612    1.0000 </r>
       <r>  -52.0299    1.0000 </r>
       <r>  -50.4828    1.0000 </r>
       <r>  -28.9420    1.0000 </r>
       <r>  -28.9326    1.0000 </r>
       <r>  -28.9110    1.0000 </r>
       <r>  -28.9023    1.0000 </r>
       <r>  -28.3639    1.0000 </r>
       <r>  -28.3621    1.0000 </r>
       <r>  -28.3327    1.0000 </r>
       <r>  -28.3239    1.0000 </r>
       <r>  -28.3182    1.0000 </r>
       <r>  -28.3163    1.0000 </r>
       <r>  -28.3162    1.0000 </r>
       <r>  -28.3157    1.0000 </r>
       <r>  -28.2858    1.0000 </r>
       <r>  -26.6875    1.0000 </r>
       <r>  -26.6870    1.0000 </r>
       <r>  -26.6828    1.0000 </r>
       <r>  -13.4014    1.0000 </r>
       <r>  -13.2215    1.0000 </r>
       <r>  -12.7085    1.0000 </r>
       <r>  -12.6529    1.0000 </r>
       <r>  -12.4982    1.0000 </r>
       <r>  -12.4165    1.0000 </r>
       <r>  -12.2982    1.0000 </r>
       <r>  -12.1797    1.0000 </r>
       <r>  -12.1483    1.0000 </r>
       <r>  -12.1476    1.0000 </r>
       <r>  -12.0836    1.0000 </r>
       <r>  -12.0533    1.0000 </r>
       <r>  -11.0488    1.0000 </r>
       <r>  -10.9587    1.0000 </r>
       <r>  -10.9131    1.0000 </r>
       <r>  -10.9046    1.0000 </r>
       <r>  -10.9037    1.0000 </r>
       <r>  -10.8770    1.0000 </r>
       <r>  -10.8262    1.0000 </r>
       <r>  -10.7782    1.0000 </r>
       <r>  -10.7637    1.0000 </r>
       <r>  -10.6746    1.0000 </r>
       <r>  -10.5819    1.0000 </r>
       <r>  -10.4336    1.0000 </r>
       <r>   -0.5922    1.0000 </r>
       <r>   -0.4509    1.0000 </r>
       <r>   -0.3020    1.0000 </r>
       <r>   -0.1334    1.0000 </r>
       <r>   -0.0533    1.0000 </r>
       <r>    0.2359    1.0000 </r>
       <r>    0.3468    1.0000 </r>
       <r>    0.4515    1.0000 </r>
       <r>    0.4635    1.0000 </r>
       <r>    0.5990    1.0000 </r>
       <r>    0.8616    1.0000 </r>
       <r>    0.9676    1.0000 </r>
       <r>    0.9750    1.0000 </r>
       <r>    1.1197    1.0000 </r>
       <r>    1.2376    1.0000 </r>
       <r>    1.2858    1.0000 </r>
       <r>    1.3083    1.0000 </r>
       <r>    1.3348    1.0000 </r>
       <r>    1.4036    1.0000 </r>
       <r>    1.4304    1.0000 </r>
       <r>    2.3762    1.0000 </r>
       <r>    2.4100    1.0000 </r>
       <r>    2.5165    1.0000 </r>
       <r>    2.6609    1.0000 </r>
       <r>    2.7511    1.0000 </r>
       <r>    2.8814    1.0000 </r>
       <r>    2.9438    1.0000 </r>
       <r>    3.0386    1.0000 </r>
       <r>    3.1340    1.0000 </r>
       <r>    3.1692    1.0000 </r>
       <r>    3.4047    1.0000 </r>
       <r>    3.4196    1.0000 </r>
       <r>    3.4501    1.0000 </r>
       <r>    3.4884    1.0000 </r>
       <r>    3.6799    1.0000 </r>
       <r>    3.8821    1.0000 </r>
       <r>    6.3173    0.9346 </r>
       <r>    6.3809    0.4584 </r>
       <r>    6.4203    0.3444 </r>
       <r>    6.6300    0.0196 </r>
       <r>    7.9598    0.0000 </r>
       <r>    7.9732    0.0000 </r>
       <r>    8.0734    0.0000 </r>
       <r>    8.0947    0.0000 </r>
       <r>    8.3180    0.0000 </r>
       <r>    8.4148    0.0000 </r>
       <r>    8.4396    0.0000 </r>
       <r>    8.6782    0.0000 </r>
       <r>    8.8790    0.0000 </r>
       <r>    8.9061    0.0000 </r>
       <r>    9.4059    0.0000 </r>
       <r>    9.6749    0.0000 </r>
      </set>
      <set comment="kpoint 3">
       <r>  -52.0625    1.0000 </r>
       <r>  -52.0618    1.0000 </r>
       <r>  -52.0299    1.0000 </r>
       <r>  -50.4828    1.0000 </r>
       <r>  -28.9360    1.0000 </r>
       <r>  -28.9239    1.0000 </r>
       <r>  -28.9212    1.0000 </r>
       <r>  -28.9099    1.0000 </r>
       <r>  -28.3496    1.0000 </r>
       <r>  -28.3452    1.0000 </r>
       <r>  -28.3366    1.0000 </r>
       <r>  -28.3318    1.0000 </r>
       <r>  -28.3275    1.0000 </r>
       <r>  -28.3241    1.0000 </r>
       <r>  -28.3164    1.0000 </r>
       <r>  -28.3139    1.0000 </r>
       <r>  -28.2852    1.0000 </r>
       <r>  -26.6884    1.0000 </r>
       <r>  -26.6872    1.0000 </r>
       <r>  -26.6835    1.0000 </r>
       <r>  -13.2174    1.0000 </r>
       <r>  -13.0627    1.0000 </r>
       <r>  -12.9779    1.0000 </r>
       <r>  -12.7013    1.0000 </r>
       <r>  -12.6335    1.0000 </r>
       <r>  -12.4840    1.0000 </r>
       <r>  -12.3136    1.0000 </r>
       <r>  -12.2218    1.0000 </r>
       <r>  -12.1793    1.0000 </r>
       <r>  -12.1772    1.0000 </r>
       <r>  -12.1425    1.0000 </r>
       <r>  -12.1313    1.0000 </r>
       <r>  -10.9679    1.0000 </r>
       <r>  -10.9493    1.0000 </r>
       <r>  -10.9138    1.0000 </r>
       <r>  -10.8877    1.0000 </r>
       <r>  -10.8632    1.0000 </r>
       <r>  -10.7881    1.0000 </r>
       <r>  -10.7049    1.0000 </r>
       <r>  -10.7037    1.0000 </r>
       <r>  -10.6589    1.0000 </r>
       <r>  -10.6367    1.0000 </r>
       <r>  -10.5211    1.0000 </r>
       <r>  -10.5084    1.0000 </r>
       <r>   -0.3889    1.0000 </r>
       <r>   -0.1104    1.0000 </r>
       <r>   -0.0211    1.0000 </r>
       <r>    0.0099    1.0000 </r>
       <r>    0.2264    1.0000 </r>
       <r>    0.4376    1.0000 </r>
       <r>    0.4739    1.0000 </r>
       <r>    0.4844    1.0000 </r>
       <r>    0.5483    1.0000 </r>
       <r>    0.6781    1.0000 </r>
       <r>    0.8174    1.0000 </r>
       <r>    0.9187    1.0000 </r>
       <r>    0.9216    1.0000 </r>
       <r>    0.9790    1.0000 </r>
       <r>    1.0441    1.0000 </r>
       <r>    1.0555    1.0000 </r>
       <r>    1.2215    1.0000 </r>
       <r>    1.2709    1.0000 </r>
       <r>    1.3492    1.0000 </r>
       <r>    1.4804    1.0000 </r>
       <r>    1.8287    1.0000 </r>
       <r>    1.8777    1.0000 </r>
       <r>    1.9156    1.0000 </r>
       <r>    2.3337    1.0000 </r>
       <r>    2.7983    1.0000 </r>
       <r>    2.8497    1.0000 </r>
       <r>    2.9143    1.0000 </r>
       <r>    2.9362    1.0000 </r>
       <r>    2.9970    1.0000 </r>
       <r>    3.1240    1.0000 </r>
       <r>    3.2019    1.0000 </r>
       <r>    3.2195    1.0000 </r>
       <r>    3.2633    1.0000 </r>
       <r>    3.3400    1.0000 </r>
       <r>    3.4759    1.0000 </r>
       <r>    3.6166    1.0000 </r>
       <r>    6.8993   -0.0823 </r>
       <r>    7.0102   -0.0051 </r>
       <r>    7.1834   -0.0015 </r>
       <r>    7.3248    0.0000 </r>
       <r>    7.5478    0.0000 </r>
       <r>    7.6258    0.0000 </r>
       <r>    7.8552    0.0000 </r>
       <r>    7.9978    0.0000 </r>
       <r>    8.0149    0.0000 </r>
       <r>    8.0898    0.0000 </r>
       <r>    8.1921    0.0000 </r>
       <r>    8.2198    0.0000 </r>
       <r>    9.3740    0.0000 </r>
       <r>    9.8967    0.0000 </r>
       <r>   10.0996    0.0000 </r>
       <r>   10.3432    0.0000 </r>
      </set>
      <set comment="kpoint 4">
       <r>  -52.0629    1.0000 </r>
       <r>  -52.0613    1.0000 </r>
       <r>  -52.0299    1.0000 </r>
       <r>  -50.4828    1.0000 </r>
       <r>  -28.9406    1.0000 </r>
       <r>  -28.9289    1.0000 </r>
       <r>  -28.9171    1.0000 </r>
       <r>  -28.9032    1.0000 </r>
       <r>  -28.3665    1.0000 </r>
       <r>  -28.3488    1.0000 </r>
       <r>  -28.3359    1.0000 </r>
       <r>  -28.3291    1.0000 </r>
       <r>  -28.3239    1.0000 </r>
       <r>  -28.3166    1.0000 </r>
       <r>  -28.3154    1.0000 </r>
       <r>  -28.3110    1.0000 </r>
       <r>  -28.2853    1.0000 </r>
       <r>  -26.6881    1.0000 </r>
       <r>  -26.6862    1.0000 </r>
       <r>  -26.6832    1.0000 </r>
       <r>  -13.3335    1.0000 </r>
       <r>  -13.2042    1.0000 </r>
       <r>  -12.9454    1.0000 </r>
       <r>  -12.6197    1.0000 </r>
       <r>  -12.5024    1.0000 </r>
       <r>  -12.4403    1.0000 </r>
       <r>  -12.2678    1.0000 </r>
       <r>  -12.2234    1.0000 </r>
       <r>  -12.1930    1.0000 </r>
       <r>  -12.1646    1.0000 </r>
       <r>  -12.1164    1.0000 </r>
       <r>  -12.0329    1.0000 </r>
       <r>  -11.0699    1.0000 </r>
       <r>  -10.9483    1.0000 </r>
       <r>  -10.9040    1.0000 </r>
       <r>  -10.8698    1.0000 </r>
       <r>  -10.8662    1.0000 </r>
       <r>  -10.8197    1.0000 </r>
       <r>  -10.7834    1.0000 </r>
       <r>  -10.7372    1.0000 </r>
       <r>  -10.6981    1.0000 </r>
       <r>  -10.5915    1.0000 </r>
       <r>  -10.5559    1.0000 </r>
       <r>  -10.4787    1.0000 </r>
       <r>   -0.7017    1.0000 </r>
       <r>   -0.3169    1.0000 </r>
       <r>   -0.1689    1.0000 </r>
       <r>   -0.0128    1.0000 </r>
       <r>    0.0195    1.0000 </r>
       <r>    0.1320    1.0000 </r>
       <r>    0.3123    1.0000 </r>
       <r>    0.3551    1.0000 </r>
       <r>    0.5854    1.0000 </r>
       <r>    0.6668    1.0000 </r>
       <r>    0.7947    1.0000 </r>
       <r>    0.8937    1.0000 </r>
       <r>    0.9615    1.0000 </r>
       <r>    1.0475    1.0000 </r>
       <r>    1.1382    1.0000 </r>
       <r>    1.2774    1.0000 </r>
       <r>    1.3013    1.0000 </r>
       <r>    1.3409    1.0000 </r>
       <r>    1.6685    1.0000 </r>
       <r>    1.8408    1.0000 </r>
       <r>    2.0249    1.0000 </r>
       <r>    2.1490    1.0000 </r>
       <r>    2.3308    1.0000 </r>
       <r>    2.4534    1.0000 </r>
       <r>    2.7558    1.0000 </r>
       <r>    2.7860    1.0000 </r>
       <r>    2.8431    1.0000 </r>
       <r>    2.9077    1.0000 </r>
       <r>    2.9087    1.0000 </r>
       <r>    3.1251    1.0000 </r>
       <r>    3.2480    1.0000 </r>
       <r>    3.3447    1.0000 </r>
       <r>    3.4036    1.0000 </r>
       <r>    3.4267    1.0000 </r>
       <r>    3.6376    1.0000 </r>
       <r>    3.7780    1.0000 </r>
       <r>    6.3389    0.7861 </r>
       <r>    6.8059   -0.0316 </r>
       <r>    6.9070   -0.0330 </r>
       <r>    6.9219   -0.0160 </r>
       <r>    7.6303    0.0000 </r>
       <r>    7.8493    0.0000 </r>
       <r>    7.9659    0.0000 </r>
       <r>    8.1294    0.0000 </r>
       <r>    8.2251    0.0000 </r>
       <r>    8.2600    0.0000 </r>
       <r>    8.5536    0.0000 </r>
       <r>    8.6054    0.0000 </r>
       <r>    8.7942    0.0000 </r>
       <r>    9.2861    0.0000 </r>
       <r>    9.7078    0.0000 </r>
       <r>   10.0623    0.0000 </r>
      </set>
      <set comment="kpoint 5">
       <r>  -52.0624    1.0000 </r>
       <r>  -52.0618    1.0000 </r>
       <r>  -52.0299    1.0000 </r>
       <r>  -50.4828    1.0000 </r>
       <r>  -28.9351    1.0000 </r>
       <r>  -28.9288    1.0000 </r>
       <r>  -28.9208    1.0000 </r>
       <r>  -28.9084    1.0000 </r>
       <r>  -28.3592    1.0000 </r>
       <r>  -28.3455    1.0000 </r>
       <r>  -28.3380    1.0000 </r>
       <r>  -28.3302    1.0000 </r>
       <r>  -28.3250    1.0000 </r>
       <r>  -28.3163    1.0000 </r>
       <r>  -28.3152    1.0000 </r>
       <r>  -28.3140    1.0000 </r>
       <r>  -28.2851    1.0000 </r>
       <r>  -26.6876    1.0000 </r>
       <r>  -26.6863    1.0000 </r>
       <r>  -26.6840    1.0000 </r>
       <r>  -13.2743    1.0000 </r>
       <r>  -13.1879    1.0000 </r>
       <r>  -13.0244    1.0000 </r>
       <r>  -12.7318    1.0000 </r>
       <r>  -12.5163    1.0000 </r>
       <r>  -12.4642    1.0000 </r>
       <r>  -12.3141    1.0000 </r>
       <r>  -12.2837    1.0000 </r>
       <r>  -12.2325    1.0000 </r>
       <r>  -12.1841    1.0000 </r>
       <r>  -12.1192    1.0000 </r>
       <r>  -12.1036    1.0000 </r>
       <r>  -10.9661    1.0000 </r>
       <r>  -10.9136    1.0000 </r>
       <r>  -10.8965    1.0000 </r>
       <r>  -10.8913    1.0000 </r>
       <r>  -10.7902    1.0000 </r>
       <r>  -10.7598    1.0000 </r>
       <r>  -10.6780    1.0000 </r>
       <r>  -10.6570    1.0000 </r>
       <r>  -10.6161    1.0000 </r>
       <r>  -10.5893    1.0000 </r>
       <r>  -10.5115    1.0000 </r>
       <r>  -10.4852    1.0000 </r>
       <r>   -0.5382    1.0000 </r>
       <r>   -0.3777    1.0000 </r>
       <r>   -0.1554    1.0000 </r>
       <r>   -0.0201    1.0000 </r>
       <r>    0.1186    1.0000 </r>
       <r>    0.1804    1.0000 </r>
       <r>    0.3472    1.0000 </r>
       <r>    0.3853    1.0000 </r>
       <r>    0.5702    1.0000 </r>
       <r>    0.7602    1.0000 </r>
       <r>    0.8692    1.0000 </r>
       <r>    0.9743    1.0000 </r>
       <r>    1.0263    1.0000 </r>
       <r>    1.0839    1.0000 </r>
       <r>    1.1922    1.0000 </r>
       <r>    1.2323    1.0000 </r>
       <r>    1.3911    1.0000 </r>
       <r>    1.3932    1.0000 </r>
       <r>    1.4449    1.0000 </r>
       <r>    1.4548    1.0000 </r>
       <r>    1.6580    1.0000 </r>
       <r>    2.1126    1.0000 </r>
       <r>    2.2580    1.0000 </r>
       <r>    2.3950    1.0000 </r>
       <r>    2.5729    1.0000 </r>
       <r>    2.6390    1.0000 </r>
       <r>    2.7431    1.0000 </r>
       <r>    2.8763    1.0000 </r>
       <r>    2.9218    1.0000 </r>
       <r>    2.9810    1.0000 </r>
       <r>    3.0046    1.0000 </r>
       <r>    3.0829    1.0000 </r>
       <r>    3.1211    1.0000 </r>
       <r>    3.2351    1.0000 </r>
       <r>    3.5081    1.0000 </r>
       <r>    3.7719    1.0000 </r>
       <r>    6.7553   -0.1047 </r>
       <r>    7.0319   -0.0011 </r>
       <r>    7.4458   -0.0004 </r>
       <r>    7.5059    0.0000 </r>
       <r>    7.5116    0.0000 </r>
       <r>    7.7210    0.0000 </r>
       <r>    7.9269    0.0000 </r>
       <r>    7.9282    0.0000 </r>
       <r>    8.0145    0.0000 </r>
       <r>    8.1578    0.0000 </r>
       <r>    8.1963    0.0000 </r>
       <r>    8.5059    0.0000 </r>
       <r>    9.2215    0.0000 </r>
       <r>    9.5037    0.0000 </r>
       <r>    9.8808    0.0000 </r>
       <r>   10.3439    0.0000 </r>
      </set>
      <set comment="kpoint 6">
       <r>  -52.0624    1.0000 </r>
       <r>  -52.0618    1.0000 </r>
       <r>  -52.0299    1.0000 </r>
       <r>  -50.4828    1.0000 </r>
       <r>  -28.9382    1.0000 </r>
       <r>  -28.9244    1.0000 </r>
       <r>  -28.9177    1.0000 </r>
       <r>  -28.9128    1.0000 </r>
       <r>  -28.3591    1.0000 </r>
       <r>  -28.3453    1.0000 </r>
       <r>  -28.3373    1.0000 </r>
       <r>  -28.3301    1.0000 </r>
       <r>  -28.3252    1.0000 </r>
       <r>  -28.3167    1.0000 </r>
       <r>  -28.3150    1.0000 </r>
       <r>  -28.3140    1.0000 </r>
       <r>  -28.2856    1.0000 </r>
       <r>  -26.6876    1.0000 </r>
       <r>  -26.6863    1.0000 </r>
       <r>  -26.6840    1.0000 </r>
       <r>  -13.3309    1.0000 </r>
       <r>  -13.0722    1.0000 </r>
       <r>  -13.0189    1.0000 </r>
       <r>  -12.8555    1.0000 </r>
       <r>  -12.4960    1.0000 </r>
       <r>  -12.4752    1.0000 </r>
       <r>  -12.2828    1.0000 </r>
       <r>  -12.2601    1.0000 </r>
       <r>  -12.2268    1.0000 </r>
       <r>  -12.1674    1.0000 </r>
       <r>  -12.1376    1.0000 </r>
       <r>  -12.0856    1.0000 </r>
       <r>  -10.9737    1.0000 </r>
       <r>  -10.9490    1.0000 </r>
       <r>  -10.8971    1.0000 </r>
       <r>  -10.8942    1.0000 </r>
       <r>  -10.8419    1.0000 </r>
       <r>  -10.7530    1.0000 </r>
       <r>  -10.6528    1.0000 </r>
       <r>  -10.6264    1.0000 </r>
       <r>  -10.6149    1.0000 </r>
       <r>  -10.5696    1.0000 </r>
       <r>  -10.5080    1.0000 </r>
       <r>  -10.5016    1.0000 </r>
       <r>   -0.5794    1.0000 </r>
       <r>   -0.3375    1.0000 </r>
       <r>   -0.1421    1.0000 </r>
       <r>   -0.0201    1.0000 </r>
       <r>    0.0521    1.0000 </r>
       <r>    0.2369    1.0000 </r>
       <r>    0.3033    1.0000 </r>
       <r>    0.5386    1.0000 </r>
       <r>    0.5899    1.0000 </r>
       <r>    0.7240    1.0000 </r>
       <r>    0.8185    1.0000 </r>
       <r>    0.9743    1.0000 </r>
       <r>    0.9980    1.0000 </r>
       <r>    1.1092    1.0000 </r>
       <r>    1.1602    1.0000 </r>
       <r>    1.2064    1.0000 </r>
       <r>    1.2687    1.0000 </r>
       <r>    1.3224    1.0000 </r>
       <r>    1.5050    1.0000 </r>
       <r>    1.6372    1.0000 </r>
       <r>    1.7991    1.0000 </r>
       <r>    1.8788    1.0000 </r>
       <r>    2.1772    1.0000 </r>
       <r>    2.3524    1.0000 </r>
       <r>    2.5642    1.0000 </r>
       <r>    2.6203    1.0000 </r>
       <r>    2.7885    1.0000 </r>
       <r>    2.9050    1.0000 </r>
       <r>    2.9267    1.0000 </r>
       <r>    3.0341    1.0000 </r>
       <r>    3.0986    1.0000 </r>
       <r>    3.1164    1.0000 </r>
       <r>    3.2155    1.0000 </r>
       <r>    3.2903    1.0000 </r>
       <r>    3.5652    1.0000 </r>
       <r>    3.5737    1.0000 </r>
       <r>    6.4364    0.5327 </r>
       <r>    7.3209   -0.0085 </r>
       <r>    7.4270   -0.0041 </r>
       <r>    7.4383    0.0000 </r>
       <r>    7.5282    0.0000 </r>
       <r>    7.7609    0.0000 </r>
       <r>    7.9398    0.0000 </r>
       <r>    7.9538    0.0000 </r>
       <r>    8.0442    0.0000 </r>
       <r>    8.1839    0.0000 </r>
       <r>    8.3013    0.0000 </r>
       <r>    8.3327    0.0000 </r>
       <r>    8.9142    0.0000 </r>
       <r>    9.7641    0.0000 </r>
       <r>   10.0323    0.0000 </r>
       <r>   10.2005    0.0000 </r>
      </set>
      <set comment="kpoint 7">
       <r>  -52.0629    1.0000 </r>
       <r>  -52.0613    1.0000 </r>
       <r>  -52.0299    1.0000 </r>
       <r>  -50.4828    1.0000 </r>
       <r>  -28.9417    1.0000 </r>
       <r>  -28.9280    1.0000 </r>
       <r>  -28.9142    1.0000 </r>
       <r>  -28.9061    1.0000 </r>
       <r>  -28.3664    1.0000 </r>
       <r>  -28.3488    1.0000 </r>
       <r>  -28.3337    1.0000 </r>
       <r>  -28.3295    1.0000 </r>
       <r>  -28.3246    1.0000 </r>
       <r>  -28.3166    1.0000 </r>
       <r>  -28.3155    1.0000 </r>
       <r>  -28.3109    1.0000 </r>
       <r>  -28.2861    1.0000 </r>
       <r>  -26.6881    1.0000 </r>
       <r>  -26.6862    1.0000 </r>
       <r>  -26.6833    1.0000 </r>
       <r>  -13.3483    1.0000 </r>
       <r>  -13.2334    1.0000 </r>
       <r>  -12.8150    1.0000 </r>
       <r>  -12.7016    1.0000 </r>
       <r>  -12.5463    1.0000 </r>
       <r>  -12.4546    1.0000 </r>
       <r>  -12.2329    1.0000 </r>
       <r>  -12.2234    1.0000 </r>
       <r>  -12.1557    1.0000 </r>
       <r>  -12.1552    1.0000 </r>
       <r>  -12.1196    1.0000 </r>
       <r>  -12.0363    1.0000 </r>
       <r>  -11.0555    1.0000 </r>
       <r>  -11.0060    1.0000 </r>
       <r>  -10.9077    1.0000 </r>
       <r>  -10.9063    1.0000 </r>
       <r>  -10.8664    1.0000 </r>
       <r>  -10.7667    1.0000 </r>
       <r>  -10.7331    1.0000 </r>
       <r>  -10.7327    1.0000 </r>
       <r>  -10.7007    1.0000 </r>
       <r>  -10.6158    1.0000 </r>
       <r>  -10.6031    1.0000 </r>
       <r>  -10.4508    1.0000 </r>
       <r>   -0.7213    1.0000 </r>
       <r>   -0.3368    1.0000 </r>
       <r>   -0.1338    1.0000 </r>
       <r>   -0.0347    1.0000 </r>
       <r>    0.0742    1.0000 </r>
       <r>    0.1457    1.0000 </r>
       <r>    0.2372    1.0000 </r>
       <r>    0.6054    1.0000 </r>
       <r>    0.6166    1.0000 </r>
       <r>    0.6898    1.0000 </r>
       <r>    0.7370    1.0000 </r>
       <r>    0.8870    1.0000 </r>
       <r>    0.9259    1.0000 </r>
       <r>    1.0306    1.0000 </r>
       <r>    1.1514    1.0000 </r>
       <r>    1.2491    1.0000 </r>
       <r>    1.3082    1.0000 </r>
       <r>    1.3451    1.0000 </r>
       <r>    1.3644    1.0000 </r>
       <r>    1.5648    1.0000 </r>
       <r>    2.0594    1.0000 </r>
       <r>    2.4036    1.0000 </r>
       <r>    2.4396    1.0000 </r>
       <r>    2.4419    1.0000 </r>
       <r>    2.5697    1.0000 </r>
       <r>    2.8269    1.0000 </r>
       <r>    2.8315    1.0000 </r>
       <r>    3.1031    1.0000 </r>
       <r>    3.1385    1.0000 </r>
       <r>    3.1936    1.0000 </r>
       <r>    3.2397    1.0000 </r>
       <r>    3.2632    1.0000 </r>
       <r>    3.4423    1.0000 </r>
       <r>    3.4594    1.0000 </r>
       <r>    3.5579    1.0000 </r>
       <r>    3.6955    1.0000 </r>
       <r>    6.1241    1.0349 </r>
       <r>    6.7951   -0.0139 </r>
       <r>    6.8257   -0.0324 </r>
       <r>    6.9319   -0.0255 </r>
       <r>    7.8297    0.0000 </r>
       <r>    7.9568    0.0000 </r>
       <r>    8.0097    0.0000 </r>
       <r>    8.1820    0.0000 </r>
       <r>    8.1828    0.0000 </r>
       <r>    8.2331    0.0000 </r>
       <r>    8.4926    0.0000 </r>
       <r>    8.5547    0.0000 </r>
       <r>    8.6336    0.0000 </r>
       <r>    9.2197    0.0000 </r>
       <r>    9.6415    0.0000 </r>
       <r>    9.9024    0.0000 </r>
      </set>
      <set comment="kpoint 8">
       <r>  -52.0622    1.0000 </r>
       <r>  -52.0620    1.0000 </r>
       <r>  -52.0299    1.0000 </r>
       <r>  -50.4828    1.0000 </r>
       <r>  -28.9362    1.0000 </r>
       <r>  -28.9327    1.0000 </r>
       <r>  -28.9192    1.0000 </r>
       <r>  -28.9084    1.0000 </r>
       <r>  -28.3624    1.0000 </r>
       <r>  -28.3568    1.0000 </r>
       <r>  -28.3404    1.0000 </r>
       <r>  -28.3261    1.0000 </r>
       <r>  -28.3155    1.0000 </r>
       <r>  -28.3147    1.0000 </r>
       <r>  -28.3141    1.0000 </r>
       <r>  -28.3097    1.0000 </r>
       <r>  -28.2855    1.0000 </r>
       <r>  -26.6858    1.0000 </r>
       <r>  -26.6851    1.0000 </r>
       <r>  -26.6848    1.0000 </r>
       <r>  -13.4196    1.0000 </r>
       <r>  -13.2857    1.0000 </r>
       <r>  -13.0430    1.0000 </r>
       <r>  -12.7549    1.0000 </r>
       <r>  -12.5341    1.0000 </r>
       <r>  -12.3887    1.0000 </r>
       <r>  -12.3750    1.0000 </r>
       <r>  -12.3362    1.0000 </r>
       <r>  -12.2332    1.0000 </r>
       <r>  -12.2072    1.0000 </r>
       <r>  -12.0981    1.0000 </r>
       <r>  -12.0505    1.0000 </r>
       <r>  -10.8948    1.0000 </r>
       <r>  -10.8819    1.0000 </r>
       <r>  -10.8634    1.0000 </r>
       <r>  -10.8536    1.0000 </r>
       <r>  -10.8195    1.0000 </r>
       <r>  -10.7485    1.0000 </r>
       <r>  -10.6156    1.0000 </r>
       <r>  -10.5675    1.0000 </r>
       <r>  -10.5567    1.0000 </r>
       <r>  -10.5555    1.0000 </r>
       <r>  -10.4505    1.0000 </r>
       <r>  -10.4031    1.0000 </r>
       <r>   -0.8183    1.0000 </r>
       <r>   -0.5022    1.0000 </r>
       <r>   -0.4598    1.0000 </r>
       <r>   -0.2143    1.0000 </r>
       <r>   -0.1191    1.0000 </r>
       <r>    0.1251    1.0000 </r>
       <r>    0.2094    1.0000 </r>
       <r>    0.4587    1.0000 </r>
       <r>    0.5846    1.0000 </r>
       <r>    0.6951    1.0000 </r>
       <r>    1.0286    1.0000 </r>
       <r>    1.0991    1.0000 </r>
       <r>    1.1630    1.0000 </r>
       <r>    1.2532    1.0000 </r>
       <r>    1.2794    1.0000 </r>
       <r>    1.3181    1.0000 </r>
       <r>    1.3833    1.0000 </r>
       <r>    1.4633    1.0000 </r>
       <r>    1.5140    1.0000 </r>
       <r>    1.7418    1.0000 </r>
       <r>    1.9833    1.0000 </r>
       <r>    2.1075    1.0000 </r>
       <r>    2.1257    1.0000 </r>
       <r>    2.2748    1.0000 </r>
       <r>    2.4483    1.0000 </r>
       <r>    2.4717    1.0000 </r>
       <r>    2.6423    1.0000 </r>
       <r>    2.6633    1.0000 </r>
       <r>    2.7446    1.0000 </r>
       <r>    2.7533    1.0000 </r>
       <r>    2.9218    1.0000 </r>
       <r>    2.9590    1.0000 </r>
       <r>    3.1181    1.0000 </r>
       <r>    3.1695    1.0000 </r>
       <r>    3.5581    1.0000 </r>
       <r>    3.8791    1.0000 </r>
       <r>    6.4964    0.4078 </r>
       <r>    6.9184    0.0000 </r>
       <r>    7.4566    0.0000 </r>
       <r>    7.8040    0.0000 </r>
       <r>    7.8514    0.0000 </r>
       <r>    7.9173    0.0000 </r>
       <r>    7.9757    0.0000 </r>
       <r>    8.0364    0.0000 </r>
       <r>    8.0394    0.0000 </r>
       <r>    8.2750    0.0000 </r>
       <r>    8.3002    0.0000 </r>
       <r>    8.6376    0.0000 </r>
       <r>    8.9050    0.0000 </r>
       <r>    9.1074    0.0000 </r>
       <r>    9.5907    0.0000 </r>
       <r>    9.9151    0.0000 </r>
      </set>
      <set comment="kpoint 9">
       <r>  -52.0622    1.0000 </r>
       <r>  -52.0620    1.0000 </r>
       <r>  -52.0299    1.0000 </r>
       <r>  -50.4828    1.0000 </r>
       <r>  -28.9398    1.0000 </r>
       <r>  -28.9280    1.0000 </r>
       <r>  -28.9168    1.0000 </r>
       <r>  -28.9119    1.0000 </r>
       <r>  -28.3619    1.0000 </r>
       <r>  -28.3572    1.0000 </r>
       <r>  -28.3399    1.0000 </r>
       <r>  -28.3262    1.0000 </r>
       <r>  -28.3153    1.0000 </r>
       <r>  -28.3150    1.0000 </r>
       <r>  -28.3143    1.0000 </r>
       <r>  -28.3097    1.0000 </r>
       <r>  -28.2858    1.0000 </r>
       <r>  -26.6858    1.0000 </r>
       <r>  -26.6851    1.0000 </r>
       <r>  -26.6848    1.0000 </r>
       <r>  -13.4566    1.0000 </r>
       <r>  -13.1979    1.0000 </r>
       <r>  -13.0420    1.0000 </r>
       <r>  -12.8728    1.0000 </r>
       <r>  -12.5094    1.0000 </r>
       <r>  -12.4232    1.0000 </r>
       <r>  -12.3840    1.0000 </r>
       <r>  -12.2319    1.0000 </r>
       <r>  -12.2281    1.0000 </r>
       <r>  -12.2065    1.0000 </r>
       <r>  -12.1025    1.0000 </r>
       <r>  -12.0415    1.0000 </r>
       <r>  -10.9230    1.0000 </r>
       <r>  -10.9043    1.0000 </r>
       <r>  -10.8859    1.0000 </r>
       <r>  -10.8815    1.0000 </r>
       <r>  -10.8397    1.0000 </r>
       <r>  -10.6939    1.0000 </r>
       <r>  -10.6066    1.0000 </r>
       <r>  -10.5696    1.0000 </r>
       <r>  -10.5491    1.0000 </r>
       <r>  -10.5141    1.0000 </r>
       <r>  -10.4541    1.0000 </r>
       <r>  -10.4184    1.0000 </r>
       <r>   -0.8327    1.0000 </r>
       <r>   -0.4744    1.0000 </r>
       <r>   -0.4552    1.0000 </r>
       <r>   -0.2117    1.0000 </r>
       <r>   -0.0713    1.0000 </r>
       <r>    0.0359    1.0000 </r>
       <r>    0.2567    1.0000 </r>
       <r>    0.2949    1.0000 </r>
       <r>    0.6716    1.0000 </r>
       <r>    0.7839    1.0000 </r>
       <r>    0.8162    1.0000 </r>
       <r>    1.1874    1.0000 </r>
       <r>    1.2881    1.0000 </r>
       <r>    1.2946    1.0000 </r>
       <r>    1.2982    1.0000 </r>
       <r>    1.3453    1.0000 </r>
       <r>    1.3609    1.0000 </r>
       <r>    1.3752    1.0000 </r>
       <r>    1.6619    1.0000 </r>
       <r>    1.8010    1.0000 </r>
       <r>    1.8551    1.0000 </r>
       <r>    2.1408    1.0000 </r>
       <r>    2.2010    1.0000 </r>
       <r>    2.2961    1.0000 </r>
       <r>    2.3212    1.0000 </r>
       <r>    2.3858    1.0000 </r>
       <r>    2.4992    1.0000 </r>
       <r>    2.5109    1.0000 </r>
       <r>    2.6613    1.0000 </r>
       <r>    2.7824    1.0000 </r>
       <r>    2.8604    1.0000 </r>
       <r>    3.2371    1.0000 </r>
       <r>    3.2866    1.0000 </r>
       <r>    3.3068    1.0000 </r>
       <r>    3.4917    1.0000 </r>
       <r>    3.8150    1.0000 </r>
       <r>    6.2298    1.0743 </r>
       <r>    7.2829    0.0000 </r>
       <r>    7.3046    0.0000 </r>
       <r>    7.7998    0.0000 </r>
       <r>    7.8546    0.0000 </r>
       <r>    7.8746    0.0000 </r>
       <r>    7.9772    0.0000 </r>
       <r>    8.0126    0.0000 </r>
       <r>    8.1002    0.0000 </r>
       <r>    8.3003    0.0000 </r>
       <r>    8.3998    0.0000 </r>
       <r>    8.5355    0.0000 </r>
       <r>    8.6450    0.0000 </r>
       <r>    9.4537    0.0000 </r>
       <r>    9.5735    0.0000 </r>
       <r>    9.8802    0.0000 </r>
      </set>
      <set comment="kpoint 10">
       <r>  -52.0622    1.0000 </r>
       <r>  -52.0620    1.0000 </r>
       <r>  -52.0299    1.0000 </r>
       <r>  -50.4828    1.0000 </r>
       <r>  -28.9376    1.0000 </r>
       <r>  -28.9320    1.0000 </r>
       <r>  -28.9142    1.0000 </r>
       <r>  -28.9127    1.0000 </r>
       <r>  -28.3621    1.0000 </r>
       <r>  -28.3571    1.0000 </r>
       <r>  -28.3399    1.0000 </r>
       <r>  -28.3264    1.0000 </r>
       <r>  -28.3154    1.0000 </r>
       <r>  -28.3149    1.0000 </r>
       <r>  -28.3142    1.0000 </r>
       <r>  -28.3097    1.0000 </r>
       <r>  -28.2856    1.0000 </r>
       <r>  -26.6858    1.0000 </r>
       <r>  -26.6851    1.0000 </r>
       <r>  -26.6848    1.0000 </r>
       <r>  -13.4109    1.0000 </r>
       <r>  -13.3146    1.0000 </r>
       <r>  -12.9246    1.0000 </r>
       <r>  -12.8840    1.0000 </r>
       <r>  -12.5523    1.0000 </r>
       <r>  -12.4114    1.0000 </r>
       <r>  -12.3619    1.0000 </r>
       <r>  -12.3300    1.0000 </r>
       <r>  -12.1708    1.0000 </r>
       <r>  -12.1393    1.0000 </r>
       <r>  -12.1220    1.0000 </r>
       <r>  -12.0859    1.0000 </r>
       <r>  -10.9210    1.0000 </r>
       <r>  -10.8938    1.0000 </r>
       <r>  -10.8751    1.0000 </r>
       <r>  -10.8437    1.0000 </r>
       <r>  -10.8426    1.0000 </r>
       <r>  -10.7432    1.0000 </r>
       <r>  -10.5796    1.0000 </r>
       <r>  -10.5716    1.0000 </r>
       <r>  -10.5589    1.0000 </r>
       <r>  -10.5366    1.0000 </r>
       <r>  -10.4332    1.0000 </r>
       <r>  -10.4291    1.0000 </r>
       <r>   -0.8233    1.0000 </r>
       <r>   -0.4570    1.0000 </r>
       <r>   -0.3665    1.0000 </r>
       <r>   -0.2857    1.0000 </r>
       <r>   -0.1514    1.0000 </r>
       <r>    0.0276    1.0000 </r>
       <r>    0.2331    1.0000 </r>
       <r>    0.3812    1.0000 </r>
       <r>    0.5834    1.0000 </r>
       <r>    0.8414    1.0000 </r>
       <r>    0.9515    1.0000 </r>
       <r>    1.1374    1.0000 </r>
       <r>    1.2165    1.0000 </r>
       <r>    1.2734    1.0000 </r>
       <r>    1.3128    1.0000 </r>
       <r>    1.3174    1.0000 </r>
       <r>    1.3535    1.0000 </r>
       <r>    1.3981    1.0000 </r>
       <r>    1.4156    1.0000 </r>
       <r>    1.8181    1.0000 </r>
       <r>    1.9269    1.0000 </r>
       <r>    2.1346    1.0000 </r>
       <r>    2.3274    1.0000 </r>
       <r>    2.3312    1.0000 </r>
       <r>    2.4715    1.0000 </r>
       <r>    2.5098    1.0000 </r>
       <r>    2.5413    1.0000 </r>
       <r>    2.6018    1.0000 </r>
       <r>    2.6707    1.0000 </r>
       <r>    2.7576    1.0000 </r>
       <r>    2.8429    1.0000 </r>
       <r>    2.9980    1.0000 </r>
       <r>    3.0941    1.0000 </r>
       <r>    3.1739    1.0000 </r>
       <r>    3.7256    1.0000 </r>
       <r>    3.7536    1.0000 </r>
       <r>    6.4343    0.7190 </r>
       <r>    6.8122    0.0000 </r>
       <r>    7.7338    0.0000 </r>
       <r>    7.7983    0.0000 </r>
       <r>    7.8446    0.0000 </r>
       <r>    7.8699    0.0000 </r>
       <r>    7.9085    0.0000 </r>
       <r>    7.9768    0.0000 </r>
       <r>    8.0773    0.0000 </r>
       <r>    8.3000    0.0000 </r>
       <r>    8.4381    0.0000 </r>
       <r>    8.4948    0.0000 </r>
       <r>    8.8273    0.0000 </r>
       <r>    9.2697    0.0000 </r>
       <r>    9.5800    0.0000 </r>
       <r>    9.8970    0.0000 </r>
      </set>
      <set comment="kpoint 11">
       <r>  -52.0625    1.0000 </r>
       <r>  -52.0617    1.0000 </r>
       <r>  -52.0299    1.0000 </r>
       <r>  -50.4828    1.0000 </r>
       <r>  -28.9374    1.0000 </r>
       <r>  -28.9210    1.0000 </r>
       <r>  -28.9198    1.0000 </r>
       <r>  -28.9128    1.0000 </r>
       <r>  -28.3496    1.0000 </r>
       <r>  -28.3451    1.0000 </r>
       <r>  -28.3356    1.0000 </r>
       <r>  -28.3318    1.0000 </r>
       <r>  -28.3280    1.0000 </r>
       <r>  -28.3242    1.0000 </r>
       <r>  -28.3164    1.0000 </r>
       <r>  -28.3138    1.0000 </r>
       <r>  -28.2856    1.0000 </r>
       <r>  -26.6884    1.0000 </r>
       <r>  -26.6872    1.0000 </r>
       <r>  -26.6835    1.0000 </r>
       <r>  -13.2424    1.0000 </r>
       <r>  -13.0768    1.0000 </r>
       <r>  -12.8505    1.0000 </r>
       <r>  -12.8143    1.0000 </r>
       <r>  -12.6325    1.0000 </r>
       <r>  -12.4819    1.0000 </r>
       <r>  -12.2740    1.0000 </r>
       <r>  -12.2187    1.0000 </r>
       <r>  -12.1983    1.0000 </r>
       <r>  -12.1630    1.0000 </r>
       <r>  -12.1424    1.0000 </r>
       <r>  -12.1396    1.0000 </r>
       <r>  -10.9726    1.0000 </r>
       <r>  -10.9291    1.0000 </r>
       <r>  -10.9031    1.0000 </r>
       <r>  -10.8935    1.0000 </r>
       <r>  -10.8926    1.0000 </r>
       <r>  -10.7740    1.0000 </r>
       <r>  -10.7607    1.0000 </r>
       <r>  -10.6930    1.0000 </r>
       <r>  -10.6486    1.0000 </r>
       <r>  -10.6166    1.0000 </r>
       <r>  -10.5295    1.0000 </r>
       <r>  -10.4993    1.0000 </r>
       <r>   -0.4363    1.0000 </r>
       <r>   -0.0871    1.0000 </r>
       <r>   -0.0852    1.0000 </r>
       <r>   -0.0214    1.0000 </r>
       <r>    0.3346    1.0000 </r>
       <r>    0.4618    1.0000 </r>
       <r>    0.4716    1.0000 </r>
       <r>    0.5223    1.0000 </r>
       <r>    0.7405    1.0000 </r>
       <r>    0.8018    1.0000 </r>
       <r>    0.8150    1.0000 </r>
       <r>    0.8751    1.0000 </r>
       <r>    0.9603    1.0000 </r>
       <r>    0.9713    1.0000 </r>
       <r>    1.0389    1.0000 </r>
       <r>    1.1249    1.0000 </r>
       <r>    1.1302    1.0000 </r>
       <r>    1.1302    1.0000 </r>
       <r>    1.2244    1.0000 </r>
       <r>    1.3321    1.0000 </r>
       <r>    1.4869    1.0000 </r>
       <r>    1.9035    1.0000 </r>
       <r>    2.1592    1.0000 </r>
       <r>    2.5184    1.0000 </r>
       <r>    2.7104    1.0000 </r>
       <r>    2.8726    1.0000 </r>
       <r>    2.9111    1.0000 </r>
       <r>    3.0500    1.0000 </r>
       <r>    3.1084    1.0000 </r>
       <r>    3.1934    1.0000 </r>
       <r>    3.1987    1.0000 </r>
       <r>    3.2031    1.0000 </r>
       <r>    3.2244    1.0000 </r>
       <r>    3.2530    1.0000 </r>
       <r>    3.4792    1.0000 </r>
       <r>    3.5504    1.0000 </r>
       <r>    6.7911   -0.0281 </r>
       <r>    6.9294   -0.0139 </r>
       <r>    7.1640   -0.0113 </r>
       <r>    7.3413    0.0000 </r>
       <r>    7.7573    0.0000 </r>
       <r>    7.7851    0.0000 </r>
       <r>    7.8641    0.0000 </r>
       <r>    7.8883    0.0000 </r>
       <r>    7.9296    0.0000 </r>
       <r>    8.0806    0.0000 </r>
       <r>    8.1923    0.0000 </r>
       <r>    8.2271    0.0000 </r>
       <r>    9.0859    0.0000 </r>
       <r>    9.8923    0.0000 </r>
       <r>   10.3424    0.0000 </r>
       <r>   10.3860    0.0000 </r>
      </set>
      <set comment="kpoint 12">
       <r>  -52.0624    1.0000 </r>
       <r>  -52.0618    1.0000 </r>
       <r>  -52.0299    1.0000 </r>
       <r>  -50.4828    1.0000 </r>
       <r>  -28.9322    1.0000 </r>
       <r>  -28.9307    1.0000 </r>
       <r>  -28.9237    1.0000 </r>
       <r>  -28.9065    1.0000 </r>
       <r>  -28.3593    1.0000 </r>
       <r>  -28.3456    1.0000 </r>
       <r>  -28.3387    1.0000 </r>
       <r>  -28.3302    1.0000 </r>
       <r>  -28.3246    1.0000 </r>
       <r>  -28.3157    1.0000 </r>
       <r>  -28.3157    1.0000 </r>
       <r>  -28.3138    1.0000 </r>
       <r>  -28.2849    1.0000 </r>
       <r>  -26.6876    1.0000 </r>
       <r>  -26.6863    1.0000 </r>
       <r>  -26.6840    1.0000 </r>
       <r>  -13.2733    1.0000 </r>
       <r>  -13.1782    1.0000 </r>
       <r>  -13.0424    1.0000 </r>
       <r>  -12.7197    1.0000 </r>
       <r>  -12.4926    1.0000 </r>
       <r>  -12.4522    1.0000 </r>
       <r>  -12.3241    1.0000 </r>
       <r>  -12.2762    1.0000 </r>
       <r>  -12.2647    1.0000 </r>
       <r>  -12.1886    1.0000 </r>
       <r>  -12.1417    1.0000 </r>
       <r>  -12.0996    1.0000 </r>
       <r>  -10.9649    1.0000 </r>
       <r>  -10.8915    1.0000 </r>
       <r>  -10.8901    1.0000 </r>
       <r>  -10.8704    1.0000 </r>
       <r>  -10.7830    1.0000 </r>
       <r>  -10.7591    1.0000 </r>
       <r>  -10.6850    1.0000 </r>
       <r>  -10.6641    1.0000 </r>
       <r>  -10.6350    1.0000 </r>
       <r>  -10.6060    1.0000 </r>
       <r>  -10.5149    1.0000 </r>
       <r>  -10.4723    1.0000 </r>
       <r>   -0.5232    1.0000 </r>
       <r>   -0.4479    1.0000 </r>
       <r>   -0.2312    1.0000 </r>
       <r>    0.0464    1.0000 </r>
       <r>    0.0946    1.0000 </r>
       <r>    0.2180    1.0000 </r>
       <r>    0.3636    1.0000 </r>
       <r>    0.4868    1.0000 </r>
       <r>    0.6388    1.0000 </r>
       <r>    0.8491    1.0000 </r>
       <r>    0.8906    1.0000 </r>
       <r>    0.9251    1.0000 </r>
       <r>    0.9427    1.0000 </r>
       <r>    1.0416    1.0000 </r>
       <r>    1.1226    1.0000 </r>
       <r>    1.1872    1.0000 </r>
       <r>    1.3305    1.0000 </r>
       <r>    1.4265    1.0000 </r>
       <r>    1.5043    1.0000 </r>
       <r>    1.5719    1.0000 </r>
       <r>    1.7170    1.0000 </r>
       <r>    2.0564    1.0000 </r>
       <r>    2.1229    1.0000 </r>
       <r>    2.1956    1.0000 </r>
       <r>    2.6246    1.0000 </r>
       <r>    2.6699    1.0000 </r>
       <r>    2.7832    1.0000 </r>
       <r>    2.8841    1.0000 </r>
       <r>    2.9020    1.0000 </r>
       <r>    2.9589    1.0000 </r>
       <r>    2.9899    1.0000 </r>
       <r>    3.1350    1.0000 </r>
[...]
       <r>  -26.6822    1.0000 </r>
       <r>  -13.4400    1.0000 </r>
       <r>  -13.2208    1.0000 </r>
       <r>  -12.7639    1.0000 </r>
       <r>  -12.6659    1.0000 </r>
       <r>  -12.4199    1.0000 </r>
       <r>  -12.4199    1.0000 </r>
       <r>  -12.2987    1.0000 </r>
       <r>  -12.1560    1.0000 </r>
       <r>  -12.1407    1.0000 </r>
       <r>  -11.9804    1.0000 </r>
       <r>  -11.9804    1.0000 </r>
       <r>  -11.9572    1.0000 </r>
       <r>  -11.1422    1.0000 </r>
       <r>  -11.1181    1.0000 </r>
       <r>  -11.1181    1.0000 </r>
       <r>  -10.9098    1.0000 </r>
       <r>  -10.9098    1.0000 </r>
       <r>  -10.8924    1.0000 </r>
       <r>  -10.8924    1.0000 </r>
       <r>  -10.8440    1.0000 </r>
       <r>  -10.7258    1.0000 </r>
       <r>  -10.5212    1.0000 </r>
       <r>  -10.5102    1.0000 </r>
       <r>  -10.5102    1.0000 </r>
       <r>   -0.7059    1.0000 </r>
       <r>   -0.6357    1.0000 </r>
       <r>   -0.6046    1.0000 </r>
       <r>   -0.4245    1.0000 </r>
       <r>   -0.0039    1.0000 </r>
       <r>    0.1961    1.0000 </r>
       <r>    0.1961    1.0000 </r>
       <r>    0.2866    1.0000 </r>
       <r>    0.3721    1.0000 </r>
       <r>    0.4617    1.0000 </r>
       <r>    0.8932    1.0000 </r>
       <r>    1.2438    1.0000 </r>
       <r>    1.2438    1.0000 </r>
       <r>    1.3326    1.0000 </r>
       <r>    1.3326    1.0000 </r>
       <r>    1.3438    1.0000 </r>
       <r>    1.3438    1.0000 </r>
       <r>    1.9940    1.0000 </r>
       <r>    2.0837    1.0000 </r>
       <r>    2.0837    1.0000 </r>
       <r>    2.2914    1.0000 </r>
       <r>    2.3602    1.0000 </r>
       <r>    2.3834    1.0000 </r>
       <r>    2.3834    1.0000 </r>
       <r>    2.5419    1.0000 </r>
       <r>    2.5419    1.0000 </r>
       <r>    2.6195    1.0000 </r>
       <r>    2.6629    1.0000 </r>
       <r>    3.2112    1.0000 </r>
       <r>    3.2112    1.0000 </r>
       <r>    3.5369    1.0000 </r>
       <r>    3.5369    1.0000 </r>
       <r>    3.7943    1.0000 </r>
       <r>    3.9405    1.0000 </r>
       <r>    3.9405    1.0000 </r>
       <r>    4.0456    1.0000 </r>
       <r>    6.0139    1.1248 </r>
       <r>    6.2473    0.8844 </r>
       <r>    6.8223   -0.0122 </r>
       <r>    6.8223   -0.0088 </r>
       <r>    7.4046    0.0000 </r>
       <r>    7.4046    0.0000 </r>
       <r>    8.0701    0.0000 </r>
       <r>    8.0701    0.0000 </r>
       <r>    8.4707    0.0000 </r>
       <r>    8.4759    0.0000 </r>
       <r>    8.8164    0.0000 </r>
       <r>    8.8164    0.0000 </r>
       <r>    8.9273    0.0000 </r>
       <r>    8.9321    0.0000 </r>
       <r>    9.3919    0.0000 </r>
       <r>    9.6541    0.0000 </r>
      </set>
     </set>
    </set>
   </array>
  </eigenvalues>
  <separator name="orbital magnetization" >
   <v name="MAGDIPOLOUT">      0.00000000      0.00000000      0.00000000</v>
  </separator>
  <dos>
   <i name="efermi">      6.48247742 </i>
   <total>
    <array>
     <dimension dim="1">gridpoints</dimension>
     <dimension dim="2">spin</dimension>
     <field>energy</field>
     <field>total</field>
     <field>integrated</field>
     <set>
      <set comment="spin 1">
       <r>   -55.1909     0.0000     0.0000 </r>
       <r>   -54.9616     0.0000     0.0000 </r>
       <r>   -54.7322     0.0000     0.0000 </r>
       <r>   -54.5029     0.0000     0.0000 </r>
       <r>   -54.2735     0.0000     0.0000 </r>
       <r>   -54.0441     0.0000     0.0000 </r>
       <r>   -53.8148     0.0000     0.0000 </r>
       <r>   -53.5854     0.0000     0.0000 </r>
       <r>   -53.3561     0.0000     0.0000 </r>
       <r>   -53.1267     0.0000     0.0000 </r>
       <r>   -52.8974     0.0000     0.0000 </r>
       <r>   -52.6680     0.0000     0.0000 </r>
       <r>   -52.4386     0.0000     0.0000 </r>
       <r>   -52.2093     0.0000     0.0000 </r>
       <r>   -51.9799     0.0000     6.0000 </r>
       <r>   -51.7506     0.0000     6.0000 </r>
       <r>   -51.5212     0.0000     6.0000 </r>
       <r>   -51.2919     0.0000     6.0000 </r>
       <r>   -51.0625     0.0000     6.0000 </r>
       <r>   -50.8331     0.0000     6.0000 </r>
       <r>   -50.6038     0.0000     6.0000 </r>
       <r>   -50.3744     0.0000     8.0000 </r>
       <r>   -50.1451     0.0000     8.0000 </r>
       <r>   -49.9157     0.0000     8.0000 </r>
       <r>   -49.6864     0.0000     8.0000 </r>
       <r>   -49.4570     0.0000     8.0000 </r>
       <r>   -49.2276     0.0000     8.0000 </r>
       <r>   -48.9983     0.0000     8.0000 </r>
       <r>   -48.7689     0.0000     8.0000 </r>
       <r>   -48.5396     0.0000     8.0000 </r>
       <r>   -48.3102     0.0000     8.0000 </r>
       <r>   -48.0808     0.0000     8.0000 </r>
       <r>   -47.8515     0.0000     8.0000 </r>
       <r>   -47.6221     0.0000     8.0000 </r>
       <r>   -47.3928     0.0000     8.0000 </r>
       <r>   -47.1634     0.0000     8.0000 </r>
       <r>   -46.9341     0.0000     8.0000 </r>
       <r>   -46.7047     0.0000     8.0000 </r>
       <r>   -46.4753     0.0000     8.0000 </r>
       <r>   -46.2460     0.0000     8.0000 </r>
       <r>   -46.0166     0.0000     8.0000 </r>
       <r>   -45.7873     0.0000     8.0000 </r>
       <r>   -45.5579     0.0000     8.0000 </r>
       <r>   -45.3286     0.0000     8.0000 </r>
       <r>   -45.0992     0.0000     8.0000 </r>
       <r>   -44.8698     0.0000     8.0000 </r>
       <r>   -44.6405     0.0000     8.0000 </r>
       <r>   -44.4111     0.0000     8.0000 </r>
       <r>   -44.1818     0.0000     8.0000 </r>
       <r>   -43.9524     0.0000     8.0000 </r>
       <r>   -43.7231     0.0000     8.0000 </r>
       <r>   -43.4937     0.0000     8.0000 </r>
       <r>   -43.2643     0.0000     8.0000 </r>
       <r>   -43.0350     0.0000     8.0000 </r>
       <r>   -42.8056     0.0000     8.0000 </r>
       <r>   -42.5763     0.0000     8.0000 </r>
       <r>   -42.3469     0.0000     8.0000 </r>
       <r>   -42.1176     0.0000     8.0000 </r>
       <r>   -41.8882     0.0000     8.0000 </r>
       <r>   -41.6588     0.0000     8.0000 </r>
       <r>   -41.4295     0.0000     8.0000 </r>
       <r>   -41.2001     0.0000     8.0000 </r>
       <r>   -40.9708     0.0000     8.0000 </r>
       <r>   -40.7414     0.0000     8.0000 </r>
       <r>   -40.5121     0.0000     8.0000 </r>
       <r>   -40.2827     0.0000     8.0000 </r>
       <r>   -40.0533     0.0000     8.0000 </r>
       <r>   -39.8240     0.0000     8.0000 </r>
       <r>   -39.5946     0.0000     8.0000 </r>
       <r>   -39.3653     0.0000     8.0000 </r>
       <r>   -39.1359     0.0000     8.0000 </r>
       <r>   -38.9065     0.0000     8.0000 </r>
       <r>   -38.6772     0.0000     8.0000 </r>
       <r>   -38.4478     0.0000     8.0000 </r>
       <r>   -38.2185     0.0000     8.0000 </r>
       <r>   -37.9891     0.0000     8.0000 </r>
       <r>   -37.7598     0.0000     8.0000 </r>
       <r>   -37.5304     0.0000     8.0000 </r>
       <r>   -37.3010     0.0000     8.0000 </r>
       <r>   -37.0717     0.0000     8.0000 </r>
       <r>   -36.8423     0.0000     8.0000 </r>
       <r>   -36.6130     0.0000     8.0000 </r>
       <r>   -36.3836     0.0000     8.0000 </r>
       <r>   -36.1543     0.0000     8.0000 </r>
       <r>   -35.9249     0.0000     8.0000 </r>
       <r>   -35.6955     0.0000     8.0000 </r>
       <r>   -35.4662     0.0000     8.0000 </r>
       <r>   -35.2368     0.0000     8.0000 </r>
       <r>   -35.0075     0.0000     8.0000 </r>
       <r>   -34.7781     0.0000     8.0000 </r>
       <r>   -34.5488     0.0000     8.0000 </r>
       <r>   -34.3194     0.0000     8.0000 </r>
       <r>   -34.0900     0.0000     8.0000 </r>
       <r>   -33.8607     0.0000     8.0000 </r>
       <r>   -33.6313     0.0000     8.0000 </r>
       <r>   -33.4020     0.0000     8.0000 </r>
       <r>   -33.1726     0.0000     8.0000 </r>
       <r>   -32.9433     0.0000     8.0000 </r>
       <r>   -32.7139     0.0000     8.0000 </r>
       <r>   -32.4845     0.0000     8.0000 </r>
       <r>   -32.2552     0.0000     8.0000 </r>
       <r>   -32.0258     0.0000     8.0000 </r>
       <r>   -31.7965     0.0000     8.0000 </r>
       <r>   -31.5671     0.0000     8.0000 </r>
       <r>   -31.3378     0.0000     8.0000 </r>
       <r>   -31.1084     0.0000     8.0000 </r>
       <r>   -30.8790     0.0000     8.0000 </r>
       <r>   -30.6497     0.0000     8.0000 </r>
       <r>   -30.4203     0.0000     8.0000 </r>
       <r>   -30.1910     0.0000     8.0000 </r>
       <r>   -29.9616     0.0000     8.0000 </r>
       <r>   -29.7322     0.0000     8.0000 </r>
       <r>   -29.5029     0.0000     8.0000 </r>
       <r>   -29.2735     0.0000     8.0000 </r>
       <r>   -29.0442     0.0000     8.0000 </r>
       <r>   -28.8148     0.0000    16.0000 </r>
       <r>   -28.5855     0.0000    16.0000 </r>
       <r>   -28.3561   140.8279    18.1063 </r>
       <r>   -28.1267     0.0000    34.0000 </r>
       <r>   -27.8974     0.0000    34.0000 </r>
       <r>   -27.6680     0.0000    34.0000 </r>
       <r>   -27.4387     0.0000    34.0000 </r>
       <r>   -27.2093     0.0000    34.0000 </r>
       <r>   -26.9800     0.0000    34.0000 </r>
       <r>   -26.7506     0.0000    34.0000 </r>
       <r>   -26.5212     0.0000    40.0000 </r>
       <r>   -26.2919     0.0000    40.0000 </r>
       <r>   -26.0625     0.0000    40.0000 </r>
       <r>   -25.8332     0.0000    40.0000 </r>
       <r>   -25.6038     0.0000    40.0000 </r>
       <r>   -25.3745     0.0000    40.0000 </r>
       <r>   -25.1451     0.0000    40.0000 </r>
       <r>   -24.9157     0.0000    40.0000 </r>
       <r>   -24.6864     0.0000    40.0000 </r>
       <r>   -24.4570     0.0000    40.0000 </r>
       <r>   -24.2277     0.0000    40.0000 </r>
       <r>   -23.9983     0.0000    40.0000 </r>
       <r>   -23.7690     0.0000    40.0000 </r>
       <r>   -23.5396     0.0000    40.0000 </r>
       <r>   -23.3102     0.0000    40.0000 </r>
       <r>   -23.0809     0.0000    40.0000 </r>
       <r>   -22.8515     0.0000    40.0000 </r>
       <r>   -22.6222     0.0000    40.0000 </r>
       <r>   -22.3928     0.0000    40.0000 </r>
       <r>   -22.1635     0.0000    40.0000 </r>
       <r>   -21.9341     0.0000    40.0000 </r>
       <r>   -21.7047     0.0000    40.0000 </r>
       <r>   -21.4754     0.0000    40.0000 </r>
       <r>   -21.2460     0.0000    40.0000 </r>
       <r>   -21.0167     0.0000    40.0000 </r>
       <r>   -20.7873     0.0000    40.0000 </r>
       <r>   -20.5579     0.0000    40.0000 </r>
       <r>   -20.3286     0.0000    40.0000 </r>
       <r>   -20.0992     0.0000    40.0000 </r>
       <r>   -19.8699     0.0000    40.0000 </r>
       <r>   -19.6405     0.0000    40.0000 </r>
       <r>   -19.4112     0.0000    40.0000 </r>
       <r>   -19.1818     0.0000    40.0000 </r>
       <r>   -18.9524     0.0000    40.0000 </r>
       <r>   -18.7231     0.0000    40.0000 </r>
       <r>   -18.4937     0.0000    40.0000 </r>
       <r>   -18.2644     0.0000    40.0000 </r>
       <r>   -18.0350     0.0000    40.0000 </r>
       <r>   -17.8057     0.0000    40.0000 </r>
       <r>   -17.5763     0.0000    40.0000 </r>
       <r>   -17.3469     0.0000    40.0000 </r>
       <r>   -17.1176     0.0000    40.0000 </r>
       <r>   -16.8882     0.0000    40.0000 </r>
       <r>   -16.6589     0.0000    40.0000 </r>
       <r>   -16.4295     0.0000    40.0000 </r>
       <r>   -16.2002     0.0000    40.0000 </r>
       <r>   -15.9708     0.0000    40.0000 </r>
       <r>   -15.7414     0.0000    40.0000 </r>
       <r>   -15.5121     0.0000    40.0000 </r>
       <r>   -15.2827     0.0000    40.0000 </r>
       <r>   -15.0534     0.0000    40.0000 </r>
       <r>   -14.8240     0.0000    40.0000 </r>
       <r>   -14.5947     0.0000    40.0000 </r>
       <r>   -14.3653     0.0000    40.0000 </r>
       <r>   -14.1359     0.0000    40.0000 </r>
       <r>   -13.9066     0.0000    40.0000 </r>
       <r>   -13.6772     0.0000    40.0000 </r>
       <r>   -13.4479     1.6224    40.0255 </r>
       <r>   -13.2185    14.6028    42.3378 </r>
       <r>   -12.9892    13.1022    44.9646 </r>
       <r>   -12.7598     9.0381    46.5656 </r>
       <r>   -12.5304    20.1457    48.6850 </r>
       <r>   -12.3011    36.3052    53.2952 </r>
       <r>   -12.0717    29.5329    62.9958 </r>
       <r>   -11.8424     0.0000    64.0000 </r>
       <r>   -11.6130     0.0000    64.0000 </r>
       <r>   -11.3837     0.0000    64.0000 </r>
       <r>   -11.1543     0.0000    64.0000 </r>
       <r>   -10.9249    33.4157    67.1977 </r>
       <r>   -10.6956    30.9063    78.5377 </r>
       <r>   -10.4662    22.6289    87.1508 </r>
       <r>   -10.2369     0.0000    88.0000 </r>
       <r>   -10.0075     0.0000    88.0000 </r>
       <r>    -9.7781     0.0000    88.0000 </r>
       <r>    -9.5488     0.0000    88.0000 </r>
       <r>    -9.3194     0.0000    88.0000 </r>
       <r>    -9.0901     0.0000    88.0000 </r>
       <r>    -8.8607     0.0000    88.0000 </r>
       <r>    -8.6314     0.0000    88.0000 </r>
       <r>    -8.4020     0.0000    88.0000 </r>
       <r>    -8.1726     0.0000    88.0000 </r>
       <r>    -7.9433     0.0000    88.0000 </r>
       <r>    -7.7139     0.0000    88.0000 </r>
       <r>    -7.4846     0.0000    88.0000 </r>
       <r>    -7.2552     0.0000    88.0000 </r>
       <r>    -7.0259     0.0000    88.0000 </r>
       <r>    -6.7965     0.0000    88.0000 </r>
       <r>    -6.5671     0.0000    88.0000 </r>
       <r>    -6.3378     0.0000    88.0000 </r>
       <r>    -6.1084     0.0000    88.0000 </r>
       <r>    -5.8791     0.0000    88.0000 </r>
       <r>    -5.6497     0.0000    88.0000 </r>
       <r>    -5.4204     0.0000    88.0000 </r>
       <r>    -5.1910     0.0000    88.0000 </r>
       <r>    -4.9616     0.0000    88.0000 </r>
       <r>    -4.7323     0.0000    88.0000 </r>
       <r>    -4.5029     0.0000    88.0000 </r>
       <r>    -4.2736     0.0000    88.0000 </r>
       <r>    -4.0442     0.0000    88.0000 </r>
       <r>    -3.8149     0.0000    88.0000 </r>
       <r>    -3.5855     0.0000    88.0000 </r>
       <r>    -3.3561     0.0000    88.0000 </r>
       <r>    -3.1268     0.0000    88.0000 </r>
       <r>    -2.8974     0.0000    88.0000 </r>
       <r>    -2.6681     0.0000    88.0000 </r>
       <r>    -2.4387     0.0000    88.0000 </r>
       <r>    -2.2094     0.0000    88.0000 </r>
       <r>    -1.9800     0.0000    88.0000 </r>
       <r>    -1.7506     0.0000    88.0000 </r>
       <r>    -1.5213     0.0000    88.0000 </r>
       <r>    -1.2919     0.0000    88.0000 </r>
       <r>    -1.0626     0.0000    88.0000 </r>
       <r>    -0.8332     0.0000    88.0000 </r>
       <r>    -0.6038     8.4718    88.9717 </r>
       <r>    -0.3745    11.9097    91.3761 </r>
       <r>    -0.1451    16.4390    93.9754 </r>
       <r>     0.0842    15.2609    97.2951 </r>
       <r>     0.3136    19.1283   100.8270 </r>
       <r>     0.5429    13.1448   104.6372 </r>
       <r>     0.7723    13.3978   107.7794 </r>
       <r>     1.0017    22.0890   112.1814 </r>
       <r>     1.2310    29.5381   117.9550 </r>
       <r>     1.4604    15.1554   124.5320 </r>
       <r>     1.6897     9.0212   127.1493 </r>
       <r>     1.9191     9.6138   129.2505 </r>
       <r>     2.1484    11.2737   131.6704 </r>
       <r>     2.3778    14.0872   134.7032 </r>
       <r>     2.6072    19.1460   137.6439 </r>
       <r>     2.8365    18.9055   142.4166 </r>
       <r>     3.0659    22.5385   147.6783 </r>
       <r>     3.2952    17.3207   153.1504 </r>
       <r>     3.5246    13.6760   155.9162 </r>
       <r>     3.7539     9.7953   158.6390 </r>
       <r>     3.9833     1.0641   159.9680 </r>
       <r>     4.2127     0.0000   160.0000 </r>
       <r>     4.4420     0.0000   160.0000 </r>
       <r>     4.6714     0.0000   160.0000 </r>
       <r>     4.9007     0.0000   160.0000 </r>
       <r>     5.1301     0.0000   160.0000 </r>
       <r>     5.3594     0.0000   160.0000 </r>
       <r>     5.5888     0.0000   160.0000 </r>
       <r>     5.8182     0.0000   160.0000 </r>
       <r>     6.0475     0.1980   160.0053 </r>
       <r>     6.2769     2.0935   160.2015 </r>
       <r>     6.5062     4.6620   161.1129 </r>
       <r>     6.7356     5.3126   162.2837 </r>
       <r>     6.9649     6.9516   163.7180 </r>
       <r>     7.1943     6.7816   165.3713 </r>
       <r>     7.4237     9.0706   167.1783 </r>
       <r>     7.6530    10.3824   169.4912 </r>
       <r>     7.8824    16.4738   172.5836 </r>
       <r>     8.1117    12.0636   177.1784 </r>
       <r>     8.3411    13.5618   180.4167 </r>
       <r>     8.5705     8.7134   182.9320 </r>
       <r>     8.7998     2.6456   184.1579 </r>
       <r>     9.0292     4.1859   185.2941 </r>
       <r>     9.2585     4.8173   186.2935 </r>
       <r>     9.4879     4.2872   187.4545 </r>
       <r>     9.7172     5.7868   188.6686 </r>
       <r>     9.9466     5.2638   190.0259 </r>
       <r>    10.1760     3.8679   191.1569 </r>
       <r>    10.4053     1.0935   191.9670 </r>
       <r>    10.6347     0.0000   192.0000 </r>
       <r>    10.8640     0.0000   192.0000 </r>
       <r>    11.0934     0.0000   192.0000 </r>
       <r>    11.3227     0.0000   192.0000 </r>
       <r>    11.5521     0.0000   192.0000 </r>
       <r>    11.7815     0.0000   192.0000 </r>
       <r>    12.0108     0.0000   192.0000 </r>
       <r>    12.2402     0.0000   192.0000 </r>
       <r>    12.4695     0.0000   192.0000 </r>
       <r>    12.6989     0.0000   192.0000 </r>
       <r>    12.9282     0.0000   192.0000 </r>
       <r>    13.1576     0.0000   192.0000 </r>
       <r>    13.3870     0.0000   192.0000 </r>
       <r>    13.6163     0.0000   192.0000 </r>
      </set>
     </set>
    </array>
   </total>
  </dos>
 </calculation>
 <structure name="finalpos" >
  <crystal>
   <varray name="basis" >
    <v>       7.94790567       3.97103473       0.00000000 </v>
    <v>       7.94790567      -3.97103473       0.00000000 </v>
    <v>      -7.94790567       0.00000000      -3.97103473 </v>
   </varray>
   <i name="volume">    250.66290611 </i>
   <varray name="rec_basis" >
    <v>       0.06290965       0.12591177      -0.12591177 </v>
    <v>       0.06290965      -0.12591177      -0.12591177 </v>
    <v>       0.00000000       0.00000000      -0.25182353 </v>
   </varray>
  </crystal>
  <varray name="positions" >
   <v>       0.12500000       0.62500000       0.50000000 </v>
   <v>       0.25062663       0.75062663       0.50000000 </v>
   <v>       0.37611317       0.37388683       0.50000000 </v>
   <v>       0.87388683       0.37388683       0.99777365 </v>
   <v>       0.50040441       0.00040441       0.50000000 </v>
   <v>       0.62500000       0.62500000       0.50000000 </v>
   <v>       0.12500000       0.62500000       0.00000000 </v>
   <v>       0.74959559       0.24959559       0.50000000 </v>
   <v>       0.87388683       0.87611317       0.50000000 </v>
   <v>       0.37611317       0.87611317       0.00222635 </v>
   <v>       0.99937337       0.49937337       0.50000000 </v>
   <v>       0.12500000       0.12500000       0.50000000 </v>
   <v>       0.62500000       0.12500000       0.00000000 </v>
   <v>       0.25429222       0.25429222       0.00000000 </v>
   <v>       0.49570778       0.49570778       0.00000000 </v>
   <v>       0.75429222       0.75429222       0.00000000 </v>
   <v>       0.99570778       0.99570778       0.00000000 </v>
   <v>       0.37765336       0.87765336       0.50000000 </v>
   <v>       0.62500000       0.12500000       0.50000000 </v>
   <v>       0.87234664       0.37234664       0.50000000 </v>
  </varray>
 </structure>
</modeling>
