       N       E                     dE             d eps       ncg     rms          rms(c)
DAV:   1    -0.121438568641E+03   -0.12144E+03   -0.13258E-01  2880   0.330E+00    0.360E-02
DAV:   2    -0.121438550662E+03    0.17979E-04   -0.49513E-05  2752   0.525E-02    0.239E-02
DAV:   3    -0.121438593116E+03   -0.42454E-04   -0.38379E-05  2184   0.314E-02    0.187E-02
DAV:   4    -0.121438565510E+03    0.27605E-04   -0.21441E-05  2088   0.258E-02    0.251E-03
DAV:   5    -0.121438566169E+03   -0.65918E-06   -0.13332E-06  1560   0.866E-03
   1 F= -.12143857E+03 E0= -.12143857E+03  d E =0.000000E+00
