<?xml version="1.0" encoding="ISO-8859-1"?>
<modeling>
 <generator>
  <i name="program" type="string">vasp </i>
  <i name="version" type="string">5.4.4.18Apr17-6-g9f103f2a35  </i>
  <i name="subversion" type="string">(build Oct 23 2017 21:22:35) complex            parallel </i>
  <i name="platform" type="string">LinuxIFC </i>
  <i name="date" type="string">2017 12 27 </i>
  <i name="time" type="string">08:01:31 </i>
 </generator>
 <incar>
  <i type="string" name="PREC">accurate</i>
  <i type="int" name="IBRION">    -1</i>
  <i name="EDIFF">      0.00001000</i>
  <i name="EDIFFG">     -0.01000000</i>
  <i type="int" name="ISIF">     2</i>
  <i name="ENCUT">    500.00000000</i>
  <i type="int" name="ISMEAR">    -5</i>
  <v type="int" name="KPOINT_BSE">    -1     0     0     0</v>
 </incar>
 <structure name="primitive_cell" >
  <crystal>
   <varray name="basis" >
    <v>       0.00000000       0.00000000      -3.98514948 </v>
    <v>       0.00000000       3.98514948       0.00000000 </v>
    <v>      11.95432870       0.00000000       0.00000000 </v>
   </varray>
   <i name="volume">    189.85167153 </i>
   <varray name="rec_basis" >
    <v>       0.00000000       0.00000000      -0.25093162 </v>
    <v>       0.00000000       0.25093162       0.00000000 </v>
    <v>       0.08365171       0.00000000       0.00000000 </v>
   </varray>
  </crystal>
  <varray name="positions" >
   <v>      -0.50000000      -0.50000000       0.16666667 </v>
   <v>      -0.50000000       0.00000000       0.16666667 </v>
   <v>       0.00000000      -0.50000000       0.16666667 </v>
   <v>      -0.50000000      -0.50000000      -0.00079494 </v>
   <v>      -0.50000000      -0.50000000       0.33412827 </v>
   <v>       0.00000000       0.00000000      -0.01401612 </v>
   <v>       0.00000000       0.00000000       0.34734946 </v>
   <v>      -0.50000000      -0.50000000      -0.17045763 </v>
   <v>      -0.50000000      -0.50000000      -0.49620903 </v>
   <v>      -0.50000000       0.00000000      -0.16699728 </v>
   <v>       0.00000000      -0.50000000      -0.16699728 </v>
   <v>      -0.50000000       0.00000000      -0.49966939 </v>
   <v>       0.00000000      -0.50000000      -0.49966939 </v>
   <v>      -0.50000000      -0.50000000      -0.33333333 </v>
   <v>       0.00000000       0.00000000      -0.33333333 </v>
  </varray>
 </structure>
 <varray name="primitive_index" >
  <v type="int" >        1 </v>
  <v type="int" >        3 </v>
  <v type="int" >        4 </v>
  <v type="int" >        8 </v>
  <v type="int" >        2 </v>
  <v type="int" >       13 </v>
  <v type="int" >       11 </v>
  <v type="int" >       15 </v>
  <v type="int" >       14 </v>
  <v type="int" >        9 </v>
  <v type="int" >       10 </v>
  <v type="int" >        6 </v>
  <v type="int" >        7 </v>
  <v type="int" >        5 </v>
  <v type="int" >       12 </v>
 </varray>
 <kpoints>
  <generation param="Gamma">
   <v type="int" name="divisions">       7        7        3 </v>
   <v name="usershift">      0.00000000       0.00000000       0.00000000 </v>
   <v name="genvec1">      0.14285714       0.00000000       0.00000000 </v>
   <v name="genvec2">      0.00000000       0.14285714       0.00000000 </v>
   <v name="genvec3">      0.00000000       0.00000000       0.33333333 </v>
   <v name="shift">      0.00000000       0.00000000       0.00000000 </v>
  </generation>
  <varray name="kpointlist" >
   <v>       0.00000000       0.00000000       0.00000000 </v>
   <v>       0.14285714       0.00000000       0.00000000 </v>
   <v>       0.28571429       0.00000000       0.00000000 </v>
   <v>       0.42857143       0.00000000       0.00000000 </v>
   <v>       0.14285714       0.14285714       0.00000000 </v>
   <v>       0.28571429       0.14285714       0.00000000 </v>
   <v>       0.42857143       0.14285714       0.00000000 </v>
   <v>       0.28571429       0.28571429       0.00000000 </v>
   <v>       0.42857143       0.28571429       0.00000000 </v>
   <v>       0.42857143       0.42857143       0.00000000 </v>
   <v>       0.00000000       0.00000000       0.33333333 </v>
   <v>       0.14285714       0.00000000       0.33333333 </v>
   <v>       0.28571429       0.00000000       0.33333333 </v>
   <v>       0.42857143       0.00000000       0.33333333 </v>
   <v>       0.14285714       0.14285714       0.33333333 </v>
   <v>       0.28571429       0.14285714       0.33333333 </v>
   <v>       0.42857143       0.14285714       0.33333333 </v>
   <v>       0.28571429       0.28571429       0.33333333 </v>
   <v>       0.42857143       0.28571429       0.33333333 </v>
   <v>       0.42857143       0.42857143       0.33333333 </v>
  </varray>
  <varray name="weights" >
   <v>       0.00680272 </v>
   <v>       0.02721088 </v>
   <v>       0.02721088 </v>
   <v>       0.02721088 </v>
   <v>       0.02721088 </v>
   <v>       0.05442177 </v>
   <v>       0.05442177 </v>
   <v>       0.02721088 </v>
   <v>       0.05442177 </v>
   <v>       0.02721088 </v>
   <v>       0.01360544 </v>
   <v>       0.05442177 </v>
   <v>       0.05442177 </v>
   <v>       0.05442177 </v>
   <v>       0.05442177 </v>
   <v>       0.10884354 </v>
   <v>       0.10884354 </v>
   <v>       0.05442177 </v>
   <v>       0.10884354 </v>
   <v>       0.05442177 </v>
  </varray>
  <varray name="tetrahedronlist"  type="int" >
   <v type="int" >        4        1        2        2       12 </v>
   <v type="int" >        4        2        2        5       12 </v>
   <v type="int" >        4        2        5       12       15 </v>
   <v type="int" >        4        1        2       11       12 </v>
   <v type="int" >        4        2       11       12       12 </v>
   <v type="int" >        4        2       12       12       15 </v>
   <v type="int" >        4        2        3        5       13 </v>
   <v type="int" >        4        3        5        6       13 </v>
   <v type="int" >        4        5        6       13       16 </v>
   <v type="int" >        4        2        5       12       13 </v>
   <v type="int" >        4        5       12       13       15 </v>
   <v type="int" >        4        5       13       15       16 </v>
   <v type="int" >        4        3        4        6       14 </v>
   <v type="int" >        4        4        6        7       14 </v>
   <v type="int" >        4        6        7       14       17 </v>
   <v type="int" >        4        3        6       13       14 </v>
   <v type="int" >        4        6       13       14       16 </v>
   <v type="int" >        4        6       14       16       17 </v>
   <v type="int" >        4        4        4        7       14 </v>
   <v type="int" >        4        4        7        7       14 </v>
   <v type="int" >        4        7        7       14       17 </v>
   <v type="int" >        4        4        7       14       14 </v>
   <v type="int" >        4        7       14       14       17 </v>
   <v type="int" >        4        7       14       17       17 </v>
   <v type="int" >        4        3        4        7       13 </v>
   <v type="int" >        4        3        6        7       13 </v>
   <v type="int" >        4        6        7       13       16 </v>
   <v type="int" >        4        4        7       13       14 </v>
   <v type="int" >        4        7       13       14       17 </v>
   <v type="int" >        4        7       13       16       17 </v>
   <v type="int" >        4        2        3        6       12 </v>
   <v type="int" >        4        2        5        6       12 </v>
   <v type="int" >        4        5        6       12       15 </v>
   <v type="int" >        4        3        6       12       13 </v>
   <v type="int" >        4        6       12       13       16 </v>
   <v type="int" >        4        6       12       15       16 </v>
   <v type="int" >        4        1        2        5       11 </v>
   <v type="int" >        4        2        5       11       12 </v>
   <v type="int" >        4        5       11       12       15 </v>
   <v type="int" >        4        2        3        5       15 </v>
   <v type="int" >        4        3        5        6       15 </v>
   <v type="int" >        4        3        6       15       16 </v>
   <v type="int" >        4        2        3       12       15 </v>
   <v type="int" >        4        3       12       13       15 </v>
   <v type="int" >        4        3       13       15       16 </v>
   <v type="int" >        4        5        6        6       16 </v>
   <v type="int" >        4        6        6        8       16 </v>
   <v type="int" >        4        6        8       16       18 </v>
   <v type="int" >        4        5        6       15       16 </v>
   <v type="int" >        4        6       15       16       16 </v>
   <v type="int" >        4        6       16       16       18 </v>
   <v type="int" >        4        6        7        8       17 </v>
   <v type="int" >        4        7        8        9       17 </v>
   <v type="int" >        4        8        9       17       19 </v>
   <v type="int" >        4        6        8       16       17 </v>
   <v type="int" >        4        8       16       17       18 </v>
   <v type="int" >        4        8       17       18       19 </v>
   <v type="int" >        4        7        7        9       17 </v>
   <v type="int" >        4        7        9        9       17 </v>
   <v type="int" >        4        9        9       17       19 </v>
   <v type="int" >        4        7        9       17       17 </v>
   <v type="int" >        4        9       17       17       19 </v>
   <v type="int" >        4        9       17       19       19 </v>
   <v type="int" >        4        6        7        9       16 </v>
   <v type="int" >        4        6        8        9       16 </v>
   <v type="int" >        4        8        9       16       18 </v>
   <v type="int" >        4        7        9       16       17 </v>
   <v type="int" >        4        9       16       17       19 </v>
   <v type="int" >        4        9       16       18       19 </v>
   <v type="int" >        4        5        6        8       15 </v>
   <v type="int" >        4        6        8       15       16 </v>
   <v type="int" >        4        8       15       16       18 </v>
   <v type="int" >        4        3        4        6       16 </v>
   <v type="int" >        4        4        6        7       16 </v>
   <v type="int" >        4        4        7       16       17 </v>
   <v type="int" >        4        3        4       13       16 </v>
   <v type="int" >        4        4       13       14       16 </v>
   <v type="int" >        4        4       14       16       17 </v>
   <v type="int" >        4        6        7        8       18 </v>
   <v type="int" >        4        7        8        9       18 </v>
   <v type="int" >        4        7        9       18       19 </v>
   <v type="int" >        4        6        7       16       18 </v>
   <v type="int" >        4        7       16       17       18 </v>
   <v type="int" >        4        7       17       18       19 </v>
   <v type="int" >        4        8        9        9       19 </v>
   <v type="int" >        8        9        9       10       19 </v>
   <v type="int" >        4        9       10       19       20 </v>
   <v type="int" >        4        8        9       18       19 </v>
   <v type="int" >        4        9       18       19       19 </v>
   <v type="int" >        8        9       19       19       20 </v>
   <v type="int" >        4        9       10       10       19 </v>
   <v type="int" >        4       10       10       19       20 </v>
   <v type="int" >        4        9       10       19       19 </v>
   <v type="int" >        4       10       19       19       20 </v>
   <v type="int" >        4       10       19       20       20 </v>
   <v type="int" >        4        8        9       10       18 </v>
   <v type="int" >        4        9       10       18       19 </v>
   <v type="int" >        4       10       18       19       20 </v>
   <v type="int" >        4        4        4        7       17 </v>
   <v type="int" >        4        4        7        7       17 </v>
   <v type="int" >        4        4        7       17       17 </v>
   <v type="int" >        4        4        4       14       17 </v>
   <v type="int" >        4        4       14       14       17 </v>
   <v type="int" >        4        4       14       17       17 </v>
   <v type="int" >        4        7        7        9       19 </v>
   <v type="int" >        4        7        9        9       19 </v>
   <v type="int" >        4        7        9       19       19 </v>
   <v type="int" >        4        7        7       17       19 </v>
   <v type="int" >        4        7       17       17       19 </v>
   <v type="int" >        4        7       17       19       19 </v>
   <v type="int" >        4        9        9       10       20 </v>
   <v type="int" >        4        9       10       10       20 </v>
   <v type="int" >        4        9       10       20       20 </v>
   <v type="int" >        4        9        9       19       20 </v>
   <v type="int" >        4        9       19       20       20 </v>
   <v type="int" >        4       10       10       10       20 </v>
   <v type="int" >        4       10       10       20       20 </v>
   <v type="int" >        4       10       20       20       20 </v>
   <v type="int" >        4        3        4        7       17 </v>
   <v type="int" >        4        3        6        7       17 </v>
   <v type="int" >        4        3        6       16       17 </v>
   <v type="int" >        4        3        4       14       17 </v>
   <v type="int" >        4        3       13       14       17 </v>
   <v type="int" >        4        3       13       16       17 </v>
   <v type="int" >        4        6        7        9       19 </v>
   <v type="int" >        4        6        8        9       19 </v>
   <v type="int" >        4        6        8       18       19 </v>
   <v type="int" >        4        6        7       17       19 </v>
   <v type="int" >        4        6       16       17       19 </v>
   <v type="int" >        4        6       16       18       19 </v>
   <v type="int" >        4        8        9       10       20 </v>
   <v type="int" >        4        8        9       19       20 </v>
   <v type="int" >        4        8       18       19       20 </v>
   <v type="int" >        4        2        3        6       16 </v>
   <v type="int" >        4        2        5        6       16 </v>
   <v type="int" >        4        2        5       15       16 </v>
   <v type="int" >        4        2        3       13       16 </v>
   <v type="int" >        4        2       12       13       16 </v>
   <v type="int" >        4        2       12       15       16 </v>
   <v type="int" >        4        5        6        8       18 </v>
   <v type="int" >        4        5        6       16       18 </v>
   <v type="int" >        4        5       15       16       18 </v>
   <v type="int" >        4        1        2        5       15 </v>
   <v type="int" >        4        1        2       12       15 </v>
   <v type="int" >        4        1       11       12       15 </v>
   <v type="int" >        4       11       12       12       12 </v>
   <v type="int" >        4       12       12       12       15 </v>
   <v type="int" >        2       12       12       15       15 </v>
   <v type="int" >        2       11       11       12       12 </v>
   <v type="int" >        4       12       13       13       15 </v>
   <v type="int" >        4       13       13       15       16 </v>
   <v type="int" >        4       13       15       16       16 </v>
   <v type="int" >        4       12       12       13       15 </v>
   <v type="int" >        4       12       13       15       15 </v>
   <v type="int" >        4       13       15       15       16 </v>
   <v type="int" >        4       13       14       14       16 </v>
   <v type="int" >        4       14       14       16       17 </v>
   <v type="int" >        4       14       16       17       17 </v>
   <v type="int" >        4       13       13       14       16 </v>
   <v type="int" >        4       13       14       16       16 </v>
   <v type="int" >        4       14       16       16       17 </v>
   <v type="int" >        8       14       14       14       17 </v>
   <v type="int" >        8       14       14       17       17 </v>
   <v type="int" >        8       14       17       17       17 </v>
   <v type="int" >        4       13       13       14       17 </v>
   <v type="int" >        4       13       13       16       17 </v>
   <v type="int" >        4       13       16       16       17 </v>
   <v type="int" >        4       13       14       14       17 </v>
   <v type="int" >        4       13       14       17       17 </v>
   <v type="int" >        4       13       16       17       17 </v>
   <v type="int" >        4       12       12       13       16 </v>
   <v type="int" >        4       12       12       15       16 </v>
   <v type="int" >        4       12       15       15       16 </v>
   <v type="int" >        4       12       13       13       16 </v>
   <v type="int" >        4       12       13       16       16 </v>
   <v type="int" >        4       12       15       16       16 </v>
   <v type="int" >        4       11       11       12       15 </v>
   <v type="int" >        4       11       12       12       15 </v>
   <v type="int" >        4       11       12       15       15 </v>
   <v type="int" >        4       15       16       16       16 </v>
   <v type="int" >        4       16       16       16       18 </v>
   <v type="int" >        2       16       16       18       18 </v>
   <v type="int" >        2       15       15       16       16 </v>
   <v type="int" >        4       16       17       17       18 </v>
   <v type="int" >        4       17       17       18       19 </v>
   <v type="int" >        4       17       18       19       19 </v>
   <v type="int" >        4       16       16       17       18 </v>
   <v type="int" >        4       16       17       18       18 </v>
   <v type="int" >        4       17       18       18       19 </v>
   <v type="int" >        8       17       17       17       19 </v>
   <v type="int" >        8       17       17       19       19 </v>
   <v type="int" >        8       17       19       19       19 </v>
   <v type="int" >        4       16       16       17       19 </v>
   <v type="int" >        4       16       16       18       19 </v>
   <v type="int" >        4       16       18       18       19 </v>
   <v type="int" >        4       16       17       17       19 </v>
   <v type="int" >        4       16       17       19       19 </v>
   <v type="int" >        4       16       18       19       19 </v>
   <v type="int" >        4       15       15       16       18 </v>
   <v type="int" >        4       15       16       16       18 </v>
   <v type="int" >        4       15       16       18       18 </v>
   <v type="int" >        4       18       19       19       19 </v>
   <v type="int" >       12       19       19       19       20 </v>
   <v type="int" >       10       19       19       20       20 </v>
   <v type="int" >        2       18       18       19       19 </v>
   <v type="int" >        8       19       20       20       20 </v>
   <v type="int" >        4       18       18       19       20 </v>
   <v type="int" >        4       18       19       19       20 </v>
   <v type="int" >        4       18       19       20       20 </v>
   <v type="int" >        6       20       20       20       20 </v>
  </varray>
  <i name="volumeweight">      0.00113379 </i>
 </kpoints>
 <parameters>
  <separator name="general" >
   <i type="string" name="SYSTEM">unknown system</i>
   <i type="logical" name="LCOMPAT"> F  </i>
  </separator>
  <separator name="electronic" >
   <i type="string" name="PREC">accura</i>
   <i name="ENMAX">    500.00000000</i>
   <i name="ENAUG">    605.39200000</i>
   <i name="EDIFF">      0.00001000</i>
   <i type="int" name="IALGO">    38</i>
   <i type="int" name="IWAVPR">    10</i>
   <i type="int" name="NBANDS">    72</i>
   <i name="NELECT">    121.00000000</i>
   <i type="int" name="TURBO">     0</i>
   <i type="int" name="IRESTART">     0</i>
   <i type="int" name="NREBOOT">     0</i>
   <i type="int" name="NMIN">     0</i>
   <i name="EREF">      0.00000000</i>
   <separator name="electronic smearing" >
    <i type="int" name="ISMEAR">    -5</i>
    <i name="SIGMA">      0.20000000</i>
    <i name="KSPACING">      0.50000000</i>
    <i type="logical" name="KGAMMA"> T  </i>
   </separator>
   <separator name="electronic projectors" >
    <i type="logical" name="LREAL"> F  </i>
    <v name="ROPT">      0.00000000      0.00000000      0.00000000      0.00000000</v>
    <i type="int" name="LMAXPAW">  -100</i>
    <i type="int" name="LMAXMIX">     2</i>
    <i type="logical" name="NLSPLINE"> F  </i>
   </separator>
   <separator name="electronic startup" >
    <i type="int" name="ISTART">     1</i>
    <i type="int" name="ICHARG">     0</i>
    <i type="int" name="INIWAV">     1</i>
   </separator>
   <separator name="electronic spin" >
    <i type="int" name="ISPIN">     1</i>
    <i type="logical" name="LNONCOLLINEAR"> F  </i>
    <v name="MAGMOM">      1.00000000      1.00000000      1.00000000      1.00000000      1.00000000      1.00000000      1.00000000      1.00000000      1.00000000      1.00000000      1.00000000      1.00000000      1.00000000      1.00000000      1.00000000</v>
    <i name="NUPDOWN">     -1.00000000</i>
    <i type="logical" name="LSORBIT"> F  </i>
    <v name="SAXIS">      0.00000000      0.00000000      1.00000000</v>
    <i type="logical" name="LSPIRAL"> F  </i>
    <v name="QSPIRAL">      0.00000000      0.00000000      0.00000000</v>
    <i type="logical" name="LZEROZ"> F  </i>
   </separator>
   <separator name="electronic exchange-correlation" >
    <i type="logical" name="LASPH"> F  </i>
    <i type="logical" name="LMETAGGA"> F  </i>
   </separator>
   <separator name="electronic convergence" >
    <i type="int" name="NELM">    60</i>
    <i type="int" name="NELMDL">     0</i>
    <i type="int" name="NELMIN">     2</i>
    <i name="ENINI">    500.00000000</i>
    <separator name="electronic convergence detail" >
     <i type="logical" name="LDIAG"> T  </i>
     <i type="logical" name="LSUBROT"> F  </i>
     <i name="WEIMIN">      0.00000000</i>
     <i name="EBREAK">      0.00000003</i>
     <i name="DEPER">      0.30000000</i>
     <i type="int" name="NRMM">     4</i>
     <i name="TIME">      0.40000000</i>
    </separator>
   </separator>
   <separator name="electronic mixer" >
    <i name="AMIX">      0.40000000</i>
    <i name="BMIX">      1.00000000</i>
    <i name="AMIN">      0.10000000</i>
    <i name="AMIX_MAG">      1.60000000</i>
    <i name="BMIX_MAG">      1.00000000</i>
    <separator name="electronic mixer details" >
     <i type="int" name="IMIX">     4</i>
     <i type="logical" name="MIXFIRST"> F  </i>
     <i type="int" name="MAXMIX">   -45</i>
     <i name="WC">    100.00000000</i>
     <i type="int" name="INIMIX">     1</i>
     <i type="int" name="MIXPRE">     1</i>
     <i type="int" name="MREMOVE">     5</i>
    </separator>
   </separator>
   <separator name="electronic dipolcorrection" >
    <i type="logical" name="LDIPOL"> F  </i>
    <i type="logical" name="LMONO"> F  </i>
    <i type="int" name="IDIPOL">     0</i>
    <i name="EPSILON">      1.00000000</i>
    <v name="DIPOL">   -100.00000000   -100.00000000   -100.00000000</v>
    <i name="EFIELD">      0.00000000</i>
   </separator>
  </separator>
  <separator name="grids" >
   <i type="int" name="NGX">    30</i>
   <i type="int" name="NGY">    30</i>
   <i type="int" name="NGZ">    90</i>
   <i type="int" name="NGXF">    60</i>
   <i type="int" name="NGYF">    60</i>
   <i type="int" name="NGZF">   180</i>
   <i type="logical" name="ADDGRID"> F  </i>
  </separator>
  <separator name="ionic" >
   <i type="int" name="NSW">     0</i>
   <i type="int" name="IBRION">    -1</i>
   <i type="int" name="MDALGO">     0</i>
   <i type="int" name="ISIF">     2</i>
   <i name="PSTRESS">      0.00000000</i>
   <i name="EDIFFG">     -0.01000000</i>
   <i type="int" name="NFREE">     0</i>
   <i name="POTIM">      0.50000000</i>
   <i name="SMASS">     -3.00000000</i>
   <i name="SCALEE">      1.00000000</i>
  </separator>
  <separator name="ionic md" >
   <i name="TEBEG">      0.00010000</i>
   <i name="TEEND">      0.00010000</i>
   <i type="int" name="NBLOCK">     1</i>
   <i type="int" name="KBLOCK">     1</i>
   <i type="int" name="NPACO">   256</i>
   <i name="APACO">     16.00000000</i>
  </separator>
  <separator name="symmetry" >
   <i type="int" name="ISYM">     2</i>
   <i name="SYMPREC">      0.00001000</i>
  </separator>
  <separator name="dos" >
   <i type="int" name="LORBIT">     0</i>
   <v name="RWIGS">     -1.00000000     -1.00000000     -1.00000000     -1.00000000</v>
   <i type="int" name="NEDOS">   301</i>
   <i name="EMIN">     10.00000000</i>
   <i name="EMAX">    -10.00000000</i>
   <i name="EFERMI">      0.00000000</i>
  </separator>
  <separator name="writing" >
   <i type="int" name="NWRITE">     2</i>
   <i type="logical" name="LWAVE"> T  </i>
   <i type="logical" name="LDOWNSAMPLE"> F  </i>
   <i type="logical" name="LCHARG"> T  </i>
   <i type="logical" name="LPARD"> F  </i>
   <i type="logical" name="LVTOT"> F  </i>
   <i type="logical" name="LVHAR"> F  </i>
   <i type="logical" name="LELF"> F  </i>
   <i type="logical" name="LOPTICS"> F  </i>
   <v name="STM">      0.00000000      0.00000000      0.00000000      0.00000000      0.00000000      0.00000000      0.00000000</v>
  </separator>
  <separator name="performance" >
   <i type="int" name="NPAR">     4</i>
   <i type="int" name="NSIM">     4</i>
   <i type="int" name="NBLK">    -1</i>
   <i type="logical" name="LPLANE"> T  </i>
   <i type="logical" name="LSCALAPACK"> T  </i>
   <i type="logical" name="LSCAAWARE"> F  </i>
   <i type="logical" name="LSCALU"> F  </i>
   <i type="logical" name="LASYNC"> F  </i>
   <i type="logical" name="LORBITALREAL"> F  </i>
  </separator>
  <separator name="miscellaneous" >
   <i type="int" name="IDIOT">     3</i>
   <i type="int" name="ISPECIAL">     0</i>
   <i type="logical" name="LMUSIC"> F  </i>
   <v name="POMASS">     92.91000000     16.00000000     87.62000000     47.88000000</v>
   <v name="DARWINR">      0.00000000      0.00000000      0.00000000      0.00000000</v>
   <v name="DARWINV">      1.00000000      1.00000000      1.00000000      1.00000000</v>
   <i type="logical" name="LCORR"> T  </i>
  </separator>
  <i type="logical" name="GGA_COMPAT"> T  </i>
  <i type="logical" name="LBERRY"> F  </i>
  <i type="int" name="ICORELEVEL">     0</i>
  <i type="logical" name="LDAU"> F  </i>
  <i type="int" name="I_CONSTRAINED_M">     0</i>
  <separator name="electronic exchange-correlation" >
   <i type="string" name="GGA">--</i>
   <i type="int" name="VOSKOWN">     0</i>
   <i type="logical" name="LHFCALC"> F  </i>
   <i type="string" name="PRECFOCK"></i>
   <i type="logical" name="LSYMGRAD"> F  </i>
   <i type="logical" name="LHFONE"> F  </i>
   <i type="logical" name="LRHFCALC"> F  </i>
   <i type="logical" name="LTHOMAS"> F  </i>
   <i type="logical" name="LMODELHF"> F  </i>
   <i name="ENCUT4O">     -1.00000000</i>
   <i type="int" name="EXXOEP">     0</i>
   <i type="int" name="FOURORBIT">     0</i>
   <i name="AEXX">      0.00000000</i>
   <i name="HFALPHA">      0.00000000</i>
   <i name="MCALPHA">      0.00000000</i>
   <i name="ALDAX">      1.00000000</i>
   <i name="AGGAX">      1.00000000</i>
   <i name="ALDAC">      1.00000000</i>
   <i name="AGGAC">      1.00000000</i>
   <i type="int" name="NKREDX">     1</i>
   <i type="int" name="NKREDY">     1</i>
   <i type="int" name="NKREDZ">     1</i>
   <i type="logical" name="SHIFTRED"> F  </i>
   <i type="logical" name="ODDONLY"> F  </i>
   <i type="logical" name="EVENONLY"> F  </i>
   <i type="int" name="LMAXFOCK">     0</i>
   <i type="int" name="NMAXFOCKAE">     0</i>
   <i type="logical" name="LFOCKAEDFT"> F  </i>
   <i name="HFSCREEN">      0.00000000</i>
   <i name="HFSCREENC">      0.00000000</i>
   <i type="int" name="NBANDSGWLOW">     0</i>
  </separator>
  <separator name="vdW DFT" >
   <i type="logical" name="LUSE_VDW"> F  </i>
   <i name="Zab_VDW">     -0.84910000</i>
   <i name="PARAM1">      0.12340000</i>
   <i name="PARAM2">      1.00000000</i>
   <i name="PARAM3">      0.00000000</i>
  </separator>
  <separator name="model GW" >
   <i type="int" name="MODEL_GW">     0</i>
   <i name="MODEL_EPS0">      7.59406686</i>
   <i name="MODEL_ALPHA">      1.00000000</i>
  </separator>
  <separator name="linear response parameters" >
   <i type="logical" name="LEPSILON"> F  </i>
   <i type="logical" name="LRPA"> F  </i>
   <i type="logical" name="LNABLA"> F  </i>
   <i type="logical" name="LVEL"> F  </i>
   <i type="int" name="KINTER">     0</i>
   <i name="CSHIFT">      0.10000000</i>
   <i name="OMEGAMAX">     -1.00000000</i>
   <i name="DEG_THRESHOLD">      0.00200000</i>
   <i name="RTIME">     -0.10000000</i>
   <i name="WPLASMAI">      0.00000000</i>
   <v name="DFIELD">      0.00000000      0.00000000      0.00000000</v>
   <v name="WPLASMA">      0.00000000      0.00000000      0.00000000      0.00000000      0.00000000      0.00000000      0.00000000      0.00000000      0.00000000</v>
  </separator>
  <separator name="orbital magnetization" >
   <i type="logical" name="NUCIND"> F  </i>
   <v name="MAGPOS">      0.00000000      0.00000000      0.00000000</v>
   <i type="logical" name="LNICSALL"> T  </i>
   <i type="logical" name="ORBITALMAG"> F  </i>
   <i type="logical" name="LMAGBLOCH"> F  </i>
   <i type="logical" name="LCHIMAG"> F  </i>
   <i type="logical" name="LGAUGE"> T  </i>
   <i type="int" name="MAGATOM">     0</i>
   <v name="MAGDIPOL">      0.00000000      0.00000000      0.00000000</v>
   <v name="AVECCONST">      0.00000000      0.00000000      0.00000000</v>
  </separator>
  <separator name="response functions" >
   <i type="logical" name="LADDER"> F  </i>
   <i type="logical" name="LRPAFORCE"> F  </i>
   <i type="logical" name="LFXC"> F  </i>
   <i type="logical" name="LHARTREE"> T  </i>
   <i type="int" name="IBSE">     0</i>
   <v type="int" name="KPOINT">    -1     0     0     0</v>
   <i type="logical" name="LTCTE"> F  </i>
   <i type="logical" name="LTETE"> F  </i>
   <i type="logical" name="LTRIPLET"> F  </i>
   <i type="logical" name="LFXCEPS"> F  </i>
   <i type="logical" name="LFXHEG"> F  </i>
   <i type="int" name="NATURALO">     2</i>
   <i type="logical" name="L2ORDER"> F  </i>
   <i type="logical" name="LMP2LT"> F  </i>
   <i type="logical" name="LUSEW"> F  </i>
   <i name="ENCUTGW">     -2.00000000</i>
   <i name="ENCUTGWSOFT">     -2.00000000</i>
   <i name="ENCUTLF">     -1.00000000</i>
   <i type="int" name="LMAXMP2">    -1</i>
   <i name="SCISSOR">      0.00000000</i>
   <i type="int" name="NOMEGA">     0</i>
   <i type="int" name="NOMEGAR">     0</i>
   <i type="int" name="NBANDSGW">    -1</i>
   <i type="int" name="NBANDSO">    -1</i>
   <i type="int" name="NBANDSV">    -1</i>
   <i type="int" name="NELM">     1</i>
   <i type="int" name="NELMHF">     1</i>
   <i type="int" name="DIM">     3</i>
   <i type="int" name="ANTIRES">     0</i>
   <i name="OMEGAMAX">    -30.00000000</i>
   <i name="OMEGAMIN">    -30.00000000</i>
   <i name="OMEGATL">   -200.00000000</i>
   <i type="int" name="OMEGAGRID">   140</i>
   <i name="CSHIFT">     -0.10000000</i>
   <i type="logical" name="SELFENERGY"> F  </i>
   <i type="logical" name="LSPECTRAL"> F  </i>
   <i type="logical" name="LSPECTRALGW"> F  </i>
   <i type="logical" name="LSINGLES"> F  </i>
   <i type="logical" name="LFERMIGW"> F  </i>
   <i type="logical" name="ODDONLYGW"> F  </i>
   <i type="logical" name="EVENONLYGW"> F  </i>
   <i type="int" name="NKREDLFX">     1</i>
   <i type="int" name="NKREDLFY">     1</i>
   <i type="int" name="NKREDLFZ">     1</i>
   <i type="int" name="MAXMEM">  2800</i>
   <i type="int" name="TELESCOPE">     0</i>
   <i type="int" name="TAUPAR">     1</i>
   <i type="int" name="OMEGAPAR">    -1</i>
   <i name="LAMBDA">      1.00000000</i>
  </separator>
  <separator name="External order field" >
   <i name="OFIELD_KAPPA">      0.00000000</i>
   <v name="OFIELD_K">      0.00000000      0.00000000      0.00000000</v>
   <i name="OFIELD_Q6_NEAR">      0.00000000</i>
   <i name="OFIELD_Q6_FAR">      0.00000000</i>
   <i name="OFIELD_A">      0.00000000</i>
  </separator>
 </parameters>
 <atominfo>
  <atoms>      15 </atoms>
  <types>       4 </types>
  <array name="atoms" >
   <dimension dim="1">ion</dimension>
   <field type="string">element</field>
   <field type="int">atomtype</field>
   <set>
    <rc><c>Nb</c><c>   1</c></rc>
    <rc><c>O </c><c>   2</c></rc>
    <rc><c>O </c><c>   2</c></rc>
    <rc><c>O </c><c>   2</c></rc>
    <rc><c>O </c><c>   2</c></rc>
    <rc><c>O </c><c>   2</c></rc>
    <rc><c>O </c><c>   2</c></rc>
    <rc><c>O </c><c>   2</c></rc>
    <rc><c>O </c><c>   2</c></rc>
    <rc><c>O </c><c>   2</c></rc>
    <rc><c>Sr</c><c>   3</c></rc>
    <rc><c>Sr</c><c>   3</c></rc>
    <rc><c>Sr</c><c>   3</c></rc>
    <rc><c>Ti</c><c>   4</c></rc>
    <rc><c>Ti</c><c>   4</c></rc>
   </set>
  </array>
  <array name="atomtypes" >
   <dimension dim="1">type</dimension>
   <field type="int">atomspertype</field>
   <field type="string">element</field>
   <field>mass</field>
   <field>valence</field>
   <field type="string">pseudopotential</field>
   <set>
    <rc><c>   1</c><c>Nb</c><c>     92.91000000</c><c>     13.00000000</c><c>  PAW_PBE Nb_sv 25May2007               </c></rc>
    <rc><c>   9</c><c>O </c><c>     16.00000000</c><c>      6.00000000</c><c>  PAW_PBE O 08Apr2002                   </c></rc>
    <rc><c>   3</c><c>Sr</c><c>     87.62000000</c><c>     10.00000000</c><c>  PAW_PBE Sr_sv 07Sep2000               </c></rc>
    <rc><c>   2</c><c>Ti</c><c>     47.88000000</c><c>     12.00000000</c><c>  PAW_PBE Ti_sv 26Sep2005               </c></rc>
   </set>
  </array>
 </atominfo>
 <structure name="initialpos" >
  <crystal>
   <varray name="basis" >
    <v>       0.00000000       0.00000000      -3.98514948 </v>
    <v>       0.00000000       3.98514948       0.00000000 </v>
    <v>      11.95432870       0.00000000       0.00000000 </v>
   </varray>
   <i name="volume">    189.85167153 </i>
   <varray name="rec_basis" >
    <v>       0.00000000       0.00000000      -0.25093162 </v>
    <v>       0.00000000       0.25093162       0.00000000 </v>
    <v>       0.08365171       0.00000000       0.00000000 </v>
   </varray>
  </crystal>
  <varray name="positions" >
   <v>       0.50000000       0.50000000       0.16666667 </v>
   <v>       0.50000000       0.50000000       0.33412827 </v>
   <v>       0.50000000       0.00000000       0.16666667 </v>
   <v>       0.00000000       0.50000000       0.16666667 </v>
   <v>       0.50000000       0.50000000       0.66666667 </v>
   <v>       0.50000000       0.00000000       0.50033061 </v>
   <v>       0.00000000       0.50000000       0.50033061 </v>
   <v>       0.50000000       0.50000000       0.99920506 </v>
   <v>       0.50000000       0.00000000       0.83300272 </v>
   <v>       0.00000000       0.50000000       0.83300272 </v>
   <v>       0.00000000       0.00000000       0.34734946 </v>
   <v>       0.00000000       0.00000000       0.66666667 </v>
   <v>       0.00000000       0.00000000       0.98598388 </v>
   <v>       0.50000000       0.50000000       0.50379097 </v>
   <v>       0.50000000       0.50000000       0.82954237 </v>
  </varray>
 </structure>
 <calculation>
  <scstep>
   <time name="dav">    0.96    0.97</time>
   <time name="total">    1.07    1.08</time>
   <energy>
    <i name="alphaZ">    669.97582267 </i>
    <i name="ewald">  -8651.57646623 </i>
    <i name="hartreedc">  -2605.15810493 </i>
    <i name="XCdc">    543.24699895 </i>
    <i name="pawpsdc">  13765.77633325 </i>
    <i name="pawaedc"> -13692.18436249 </i>
    <i name="eentropy">      0.00000000 </i>
    <i name="bandstr">  -1303.17244152 </i>
    <i name="atom">  11151.65365166 </i>
    <i name="e_fr_energy">   -121.43856864 </i>
    <i name="e_wo_entrp">   -121.43856864 </i>
    <i name="e_0_energy">   -121.43856864 </i>
   </energy>
  </scstep>
  <scstep>
   <time name="dav">    0.93    0.94</time>
   <time name="total">    1.04    1.05</time>
   <energy>
    <i name="e_fr_energy">   -121.43855066 </i>
    <i name="e_wo_entrp">   -121.43855066 </i>
    <i name="e_0_energy">   -121.43855066 </i>
   </energy>
  </scstep>
  <scstep>
   <time name="dav">    0.82    0.82</time>
   <time name="total">    0.93    0.93</time>
   <energy>
    <i name="e_fr_energy">   -121.43859312 </i>
    <i name="e_wo_entrp">   -121.43859312 </i>
    <i name="e_0_energy">   -121.43859312 </i>
   </energy>
  </scstep>
  <scstep>
   <time name="dav">    0.80    0.80</time>
   <time name="total">    0.90    0.91</time>
   <energy>
    <i name="e_fr_energy">   -121.43856551 </i>
    <i name="e_wo_entrp">   -121.43856551 </i>
    <i name="e_0_energy">   -121.43856551 </i>
   </energy>
  </scstep>
  <scstep>
   <time name="dav">    0.68    0.68</time>
   <time name="total">    0.73    0.73</time>
   <energy>
    <i name="alphaZ">    669.97582267 </i>
    <i name="ewald">  -8651.57646623 </i>
    <i name="hartreedc">  -2605.19851949 </i>
    <i name="XCdc">    543.24921110 </i>
    <i name="pawpsdc">  13760.53163927 </i>
    <i name="pawaedc"> -13686.93109381 </i>
    <i name="eentropy">      0.00000000 </i>
    <i name="bandstr">  -1303.14281133 </i>
    <i name="atom">  11151.65365166 </i>
    <i name="e_fr_energy">   -121.43856617 </i>
    <i name="e_wo_entrp">   -121.43856617 </i>
    <i name="e_0_energy">   -121.43856617 </i>
   </energy>
  </scstep>
  <structure>
   <crystal>
    <varray name="basis" >
     <v>       0.00000000       0.00000000      -3.98514948 </v>
     <v>       0.00000000       3.98514948       0.00000000 </v>
     <v>      11.95432870       0.00000000       0.00000000 </v>
    </varray>
    <i name="volume">    189.85167153 </i>
    <varray name="rec_basis" >
     <v>       0.00000000       0.00000000      -0.25093162 </v>
     <v>       0.00000000       0.25093162       0.00000000 </v>
     <v>       0.08365171       0.00000000       0.00000000 </v>
    </varray>
   </crystal>
   <varray name="positions" >
    <v>       0.50000000       0.50000000       0.16666667 </v>
    <v>       0.50000000       0.50000000       0.33412827 </v>
    <v>       0.50000000       0.00000000       0.16666667 </v>
    <v>       0.00000000       0.50000000       0.16666667 </v>
    <v>       0.50000000       0.50000000       0.66666667 </v>
    <v>       0.50000000       0.00000000       0.50033061 </v>
    <v>       0.00000000       0.50000000       0.50033061 </v>
    <v>       0.50000000       0.50000000       0.99920506 </v>
    <v>       0.50000000       0.00000000       0.83300272 </v>
    <v>       0.00000000       0.50000000       0.83300272 </v>
    <v>       0.00000000       0.00000000       0.34734946 </v>
    <v>       0.00000000       0.00000000       0.66666667 </v>
    <v>       0.00000000       0.00000000       0.98598388 </v>
    <v>       0.50000000       0.50000000       0.50379097 </v>
    <v>       0.50000000       0.50000000       0.82954237 </v>
   </varray>
  </structure>
  <varray name="forces" >
   <v>      -0.00000000       0.00000000       0.00000000 </v>
   <v>      -0.00645660       0.00000000       0.00000000 </v>
   <v>      -0.00000000      -0.00000000      -0.00000000 </v>
   <v>      -0.00000000      -0.00000000       0.00000000 </v>
   <v>      -0.00000000       0.00000000       0.00000000 </v>
   <v>       0.00165174      -0.00000000       0.00000000 </v>
   <v>       0.00165174      -0.00000000       0.00000000 </v>
   <v>       0.00645660      -0.00000000       0.00000000 </v>
   <v>      -0.00165174      -0.00000000       0.00000000 </v>
   <v>      -0.00165174       0.00000000       0.00000000 </v>
   <v>      -0.00817725      -0.00000000       0.00000000 </v>
   <v>      -0.00000000      -0.00000000       0.00000000 </v>
   <v>       0.00817725      -0.00000000       0.00000000 </v>
   <v>       0.00091331      -0.00000000       0.00000000 </v>
   <v>      -0.00091331       0.00000000       0.00000000 </v>
  </varray>
  <varray name="stress" >
   <v>       0.86548740       0.00000000      -0.00000000 </v>
   <v>      -0.00000000       1.00505335       0.00000000 </v>
   <v>       0.00000000       0.00000000       1.00505335 </v>
  </varray>
  <energy>
   <i name="e_fr_energy">   -121.43856617 </i>
   <i name="e_wo_entrp">   -121.43856617 </i>
   <i name="e_0_energy">      0.00000000 </i>
  </energy>
  <time name="totalsc">    6.47    8.09</time>
  <eigenvalues>
   <array>
    <dimension dim="1">band</dimension>
    <dimension dim="2">kpoint</dimension>
    <dimension dim="3">spin</dimension>
    <field>eigene</field>
    <field>occ</field>
    <set>
     <set comment="spin 1">
      <set comment="kpoint 1">
       <r>  -51.9522    1.0000 </r>
       <r>  -51.9514    1.0000 </r>
       <r>  -50.2986    1.0000 </r>
       <r>  -28.9944    1.0000 </r>
       <r>  -28.9931    1.0000 </r>
       <r>  -28.8231    1.0000 </r>
       <r>  -28.2255    1.0000 </r>
       <r>  -28.2019    1.0000 </r>
       <r>  -28.2019    1.0000 </r>
       <r>  -28.2005    1.0000 </r>
       <r>  -28.2005    1.0000 </r>
       <r>  -28.1955    1.0000 </r>
       <r>  -26.5249    1.0000 </r>
       <r>  -26.4365    1.0000 </r>
       <r>  -26.4365    1.0000 </r>
       <r>  -13.6609    1.0000 </r>
       <r>  -13.2152    1.0000 </r>
       <r>  -13.1502    1.0000 </r>
       <r>  -13.1115    1.0000 </r>
       <r>  -12.5190    1.0000 </r>
       <r>  -12.0939    1.0000 </r>
       <r>  -12.0803    1.0000 </r>
       <r>  -12.0706    1.0000 </r>
       <r>  -12.0538    1.0000 </r>
       <r>  -10.9634    1.0000 </r>
       <r>  -10.9634    1.0000 </r>
       <r>  -10.9559    1.0000 </r>
       <r>  -10.9559    1.0000 </r>
       <r>  -10.9004    1.0000 </r>
       <r>  -10.7766    1.0000 </r>
       <r>  -10.7766    1.0000 </r>
       <r>  -10.5845    1.0000 </r>
       <r>  -10.3735    1.0000 </r>
       <r>   -0.1118    1.0000 </r>
       <r>    0.4566    1.0000 </r>
       <r>    1.3187    1.0000 </r>
       <r>    1.3187    1.0000 </r>
       <r>    1.3481    1.0000 </r>
       <r>    1.3545    1.0000 </r>
       <r>    1.3545    1.0000 </r>
       <r>    1.4262    1.0000 </r>
       <r>    1.4262    1.0000 </r>
       <r>    1.6662    1.0000 </r>
       <r>    1.8224    1.0000 </r>
       <r>    1.8224    1.0000 </r>
       <r>    2.0133    1.0000 </r>
       <r>    2.0797    1.0000 </r>
       <r>    2.0797    1.0000 </r>
       <r>    2.1388    1.0000 </r>
       <r>    2.4490    1.0000 </r>
       <r>    2.7740    1.0000 </r>
       <r>    2.7740    1.0000 </r>
       <r>    2.9126    1.0000 </r>
       <r>    2.9651    1.0000 </r>
       <r>    2.9651    1.0000 </r>
       <r>    3.5204    1.0000 </r>
       <r>    3.5204    1.0000 </r>
       <r>    3.6008    1.0000 </r>
       <r>    3.6993    1.0000 </r>
       <r>    3.6993    1.0000 </r>
       <r>    5.7564    1.0098 </r>
       <r>    6.1231    1.0491 </r>
       <r>    6.1231    1.2952 </r>
       <r>    6.2963    1.1114 </r>
       <r>    6.3799    0.8151 </r>
       <r>    7.6319    0.0000 </r>
       <r>    7.6319    0.0000 </r>
       <r>    7.6911    0.0000 </r>
       <r>    7.6911    0.0000 </r>
       <r>    8.5427    0.0000 </r>
       <r>    8.5492    0.0000 </r>
       <r>    8.7581    0.0000 </r>
      </set>
      <set comment="kpoint 2">
       <r>  -51.9520    1.0000 </r>
       <r>  -51.9512    1.0000 </r>
       <r>  -50.2981    1.0000 </r>
       <r>  -28.9919    1.0000 </r>
       <r>  -28.9900    1.0000 </r>
       <r>  -28.8200    1.0000 </r>
       <r>  -28.2275    1.0000 </r>
       <r>  -28.2107    1.0000 </r>
       <r>  -28.2104    1.0000 </r>
       <r>  -28.2015    1.0000 </r>
       <r>  -28.2000    1.0000 </r>
       <r>  -28.1957    1.0000 </r>
       <r>  -26.5245    1.0000 </r>
       <r>  -26.4679    1.0000 </r>
       <r>  -26.4355    1.0000 </r>
       <r>  -13.5649    1.0000 </r>
       <r>  -13.1612    1.0000 </r>
       <r>  -13.1379    1.0000 </r>
       <r>  -13.0126    1.0000 </r>
       <r>  -12.5163    1.0000 </r>
       <r>  -12.1802    1.0000 </r>
       <r>  -12.1595    1.0000 </r>
       <r>  -12.0824    1.0000 </r>
       <r>  -12.0338    1.0000 </r>
       <r>  -10.9567    1.0000 </r>
       <r>  -10.9481    1.0000 </r>
       <r>  -10.8962    1.0000 </r>
       <r>  -10.8619    1.0000 </r>
       <r>  -10.8499    1.0000 </r>
       <r>  -10.7691    1.0000 </r>
       <r>  -10.7031    1.0000 </r>
       <r>  -10.5872    1.0000 </r>
       <r>  -10.4010    1.0000 </r>
       <r>   -0.1210    1.0000 </r>
       <r>    0.3676    1.0000 </r>
       <r>    0.7513    1.0000 </r>
       <r>    0.9451    1.0000 </r>
       <r>    1.2063    1.0000 </r>
       <r>    1.2721    1.0000 </r>
       <r>    1.2892    1.0000 </r>
       <r>    1.3607    1.0000 </r>
       <r>    1.3774    1.0000 </r>
       <r>    1.4051    1.0000 </r>
       <r>    1.4198    1.0000 </r>
       <r>    1.7717    1.0000 </r>
       <r>    1.8775    1.0000 </r>
       <r>    1.9452    1.0000 </r>
       <r>    2.2944    1.0000 </r>
       <r>    2.4212    1.0000 </r>
       <r>    2.5395    1.0000 </r>
       <r>    2.5543    1.0000 </r>
       <r>    2.7150    1.0000 </r>
       <r>    2.8059    1.0000 </r>
       <r>    2.8269    1.0000 </r>
       <r>    3.0014    1.0000 </r>
       <r>    3.1533    1.0000 </r>
       <r>    3.2295    1.0000 </r>
       <r>    3.2993    1.0000 </r>
       <r>    3.5095    1.0000 </r>
       <r>    3.5575    1.0000 </r>
       <r>    6.1530    1.0677 </r>
       <r>    6.3095    0.8327 </r>
       <r>    6.5489    0.4125 </r>
       <r>    6.6711    0.0897 </r>
       <r>    6.7328    0.0310 </r>
       <r>    7.6441    0.0000 </r>
       <r>    7.7014    0.0000 </r>
       <r>    7.7143    0.0000 </r>
       <r>    7.7291    0.0000 </r>
       <r>    8.6934    0.0000 </r>
       <r>    8.8881    0.0000 </r>
       <r>    9.1268    0.0000 </r>
      </set>
      <set comment="kpoint 3">
       <r>  -51.9515    1.0000 </r>
       <r>  -51.9507    1.0000 </r>
       <r>  -50.2969    1.0000 </r>
       <r>  -28.9866    1.0000 </r>
       <r>  -28.9829    1.0000 </r>
       <r>  -28.8132    1.0000 </r>
       <r>  -28.2332    1.0000 </r>
       <r>  -28.2331    1.0000 </r>
       <r>  -28.2279    1.0000 </r>
       <r>  -28.2006    1.0000 </r>
       <r>  -28.1991    1.0000 </r>
       <r>  -28.1964    1.0000 </r>
       <r>  -26.5372    1.0000 </r>
       <r>  -26.5235    1.0000 </r>
       <r>  -26.4331    1.0000 </r>
       <r>  -13.4845    1.0000 </r>
       <r>  -13.1653    1.0000 </r>
       <r>  -12.9736    1.0000 </r>
       <r>  -12.7121    1.0000 </r>
       <r>  -12.5109    1.0000 </r>
       <r>  -12.3308    1.0000 </r>
       <r>  -12.2090    1.0000 </r>
       <r>  -12.0683    1.0000 </r>
       <r>  -12.0062    1.0000 </r>
       <r>  -10.9417    1.0000 </r>
       <r>  -10.9305    1.0000 </r>
       <r>  -10.8841    1.0000 </r>
       <r>  -10.7521    1.0000 </r>
       <r>  -10.6952    1.0000 </r>
       <r>  -10.6628    1.0000 </r>
       <r>  -10.6627    1.0000 </r>
       <r>  -10.4650    1.0000 </r>
       <r>  -10.4526    1.0000 </r>
       <r>   -0.2394    1.0000 </r>
       <r>   -0.1320    1.0000 </r>
       <r>   -0.0511    1.0000 </r>
       <r>    0.4768    1.0000 </r>
       <r>    0.5628    1.0000 </r>
       <r>    0.7344    1.0000 </r>
       <r>    0.8533    1.0000 </r>
       <r>    1.0487    1.0000 </r>
       <r>    1.1998    1.0000 </r>
       <r>    1.3580    1.0000 </r>
       <r>    1.4102    1.0000 </r>
       <r>    1.6652    1.0000 </r>
       <r>    1.6841    1.0000 </r>
       <r>    1.8349    1.0000 </r>
       <r>    1.9501    1.0000 </r>
       <r>    2.1835    1.0000 </r>
       <r>    2.2141    1.0000 </r>
       <r>    2.2842    1.0000 </r>
       <r>    2.4737    1.0000 </r>
       <r>    2.5789    1.0000 </r>
       <r>    2.6658    1.0000 </r>
       <r>    2.7133    1.0000 </r>
       <r>    2.9212    1.0000 </r>
       <r>    3.2675    1.0000 </r>
       <r>    3.3717    1.0000 </r>
       <r>    3.4219    1.0000 </r>
       <r>    3.5689    1.0000 </r>
       <r>    6.2263    1.1370 </r>
       <r>    7.3696   -0.0599 </r>
       <r>    7.3779   -0.0080 </r>
       <r>    7.4186    0.0000 </r>
       <r>    7.4191    0.0000 </r>
       <r>    7.6780    0.0000 </r>
       <r>    7.7291    0.0000 </r>
       <r>    7.9692    0.0000 </r>
       <r>    8.1059    0.0000 </r>
       <r>    8.7167    0.0000 </r>
       <r>    9.2313    0.0000 </r>
       <r>    9.8779    0.0000 </r>
      </set>
      <set comment="kpoint 4">
       <r>  -51.9512    1.0000 </r>
       <r>  -51.9503    1.0000 </r>
       <r>  -50.2960    1.0000 </r>
       <r>  -28.9825    1.0000 </r>
       <r>  -28.9773    1.0000 </r>
       <r>  -28.8076    1.0000 </r>
       <r>  -28.2509    1.0000 </r>
       <r>  -28.2443    1.0000 </r>
       <r>  -28.2349    1.0000 </r>
       <r>  -28.1998    1.0000 </r>
       <r>  -28.1983    1.0000 </r>
       <r>  -28.1971    1.0000 </r>
       <r>  -26.5915    1.0000 </r>
       <r>  -26.5227    1.0000 </r>
       <r>  -26.4312    1.0000 </r>
       <r>  -13.5274    1.0000 </r>
       <r>  -13.1333    1.0000 </r>
       <r>  -12.8887    1.0000 </r>
       <r>  -12.5992    1.0000 </r>
       <r>  -12.3856    1.0000 </r>
       <r>  -12.3102    1.0000 </r>
       <r>  -12.1493    1.0000 </r>
       <r>  -12.0589    1.0000 </r>
       <r>  -12.0024    1.0000 </r>
       <r>  -10.9295    1.0000 </r>
       <r>  -10.9163    1.0000 </r>
       <r>  -10.8733    1.0000 </r>
       <r>  -10.7384    1.0000 </r>
       <r>  -10.6623    1.0000 </r>
       <r>  -10.5889    1.0000 </r>
       <r>  -10.5332    1.0000 </r>
       <r>  -10.4834    1.0000 </r>
       <r>  -10.3304    1.0000 </r>
       <r>   -1.1489    1.0000 </r>
       <r>   -0.4958    1.0000 </r>
       <r>   -0.1205    1.0000 </r>
       <r>    0.1059    1.0000 </r>
       <r>    0.1655    1.0000 </r>
       <r>    0.3212    1.0000 </r>
       <r>    0.5744    1.0000 </r>
       <r>    0.8442    1.0000 </r>
       <r>    1.1078    1.0000 </r>
       <r>    1.3766    1.0000 </r>
       <r>    1.4047    1.0000 </r>
       <r>    1.5019    1.0000 </r>
       <r>    1.5369    1.0000 </r>
       <r>    1.6370    1.0000 </r>
       <r>    1.7701    1.0000 </r>
       <r>    1.9235    1.0000 </r>
       <r>    1.9801    1.0000 </r>
       <r>    2.1502    1.0000 </r>
       <r>    2.3677    1.0000 </r>
       <r>    2.4506    1.0000 </r>
       <r>    2.5448    1.0000 </r>
       <r>    2.6856    1.0000 </r>
       <r>    2.6985    1.0000 </r>
       <r>    3.2762    1.0000 </r>
       <r>    3.3253    1.0000 </r>
       <r>    3.5169    1.0000 </r>
       <r>    3.7799    1.0000 </r>
       <r>    6.2899    1.1254 </r>
       <r>    7.6865    0.0000 </r>
       <r>    7.7335    0.0000 </r>
       <r>    7.9291    0.0000 </r>
       <r>    7.9428    0.0000 </r>
       <r>    7.9450    0.0000 </r>
       <r>    8.2399    0.0000 </r>
       <r>    8.2794    0.0000 </r>
       <r>    8.6692    0.0000 </r>
       <r>    8.7233    0.0000 </r>
       <r>    9.3389    0.0000 </r>
       <r>   10.2297    0.0000 </r>
      </set>
      <set comment="kpoint 5">
       <r>  -51.9518    1.0000 </r>
       <r>  -51.9510    1.0000 </r>
       <r>  -50.2976    1.0000 </r>
       <r>  -28.9892    1.0000 </r>
       <r>  -28.9867    1.0000 </r>
       <r>  -28.8168    1.0000 </r>
       <r>  -28.2289    1.0000 </r>
       <r>  -28.2125    1.0000 </r>
       <r>  -28.2109    1.0000 </r>
       <r>  -28.2098    1.0000 </r>
       <r>  -28.2084    1.0000 </r>
       <r>  -28.1958    1.0000 </r>
       <r>  -26.5239    1.0000 </r>
       <r>  -26.4671    1.0000 </r>
       <r>  -26.4668    1.0000 </r>
       <r>  -13.4405    1.0000 </r>
       <r>  -13.1396    1.0000 </r>
       <r>  -13.0605    1.0000 </r>
       <r>  -12.9556    1.0000 </r>
       <r>  -12.5029    1.0000 </r>
       <r>  -12.1882    1.0000 </r>
       <r>  -12.1763    1.0000 </r>
       <r>  -12.1242    1.0000 </r>
       <r>  -12.0675    1.0000 </r>
       <r>  -10.9340    1.0000 </r>
       <r>  -10.9334    1.0000 </r>
       <r>  -10.8906    1.0000 </r>
       <r>  -10.8189    1.0000 </r>
       <r>  -10.8072    1.0000 </r>
       <r>  -10.7479    1.0000 </r>
       <r>  -10.7078    1.0000 </r>
       <r>  -10.5545    1.0000 </r>
       <r>  -10.4234    1.0000 </r>
       <r>   -0.1276    1.0000 </r>
       <r>    0.2593    1.0000 </r>
       <r>    0.7040    1.0000 </r>
       <r>    0.7423    1.0000 </r>
       <r>    0.8843    1.0000 </r>
       <r>    1.0375    1.0000 </r>
       <r>    1.0529    1.0000 </r>
       <r>    1.2531    1.0000 </r>
       <r>    1.3067    1.0000 </r>
       <r>    1.3674    1.0000 </r>
       <r>    1.4239    1.0000 </r>
       <r>    1.4762    1.0000 </r>
       <r>    1.5034    1.0000 </r>
       <r>    1.8530    1.0000 </r>
       <r>    2.3196    1.0000 </r>
       <r>    2.3252    1.0000 </r>
       <r>    2.4556    1.0000 </r>
       <r>    2.4946    1.0000 </r>
       <r>    2.8092    1.0000 </r>
       <r>    2.8139    1.0000 </r>
       <r>    2.8219    1.0000 </r>
       <r>    2.8681    1.0000 </r>
       <r>    3.0405    1.0000 </r>
       <r>    3.1204    1.0000 </r>
       <r>    3.2344    1.0000 </r>
       <r>    3.3617    1.0000 </r>
       <r>    3.3772    1.0000 </r>
       <r>    6.5164    0.7995 </r>
       <r>    6.6262    0.3101 </r>
       <r>    6.6797    0.0699 </r>
       <r>    6.9223   -0.0181 </r>
       <r>    6.9870   -0.0223 </r>
       <r>    7.7335    0.0000 </r>
       <r>    7.7448    0.0000 </r>
       <r>    7.7576    0.0000 </r>
       <r>    7.7595    0.0000 </r>
       <r>    9.0312    0.0000 </r>
       <r>    9.3428    0.0000 </r>
       <r>    9.3581    0.0000 </r>
      </set>
      <set comment="kpoint 6">
       <r>  -51.9513    1.0000 </r>
       <r>  -51.9505    1.0000 </r>
       <r>  -50.2964    1.0000 </r>
       <r>  -28.9833    1.0000 </r>
       <r>  -28.9795    1.0000 </r>
       <r>  -28.8095    1.0000 </r>
       <r>  -28.2334    1.0000 </r>
       <r>  -28.2332    1.0000 </r>
       <r>  -28.2294    1.0000 </r>
       <r>  -28.2103    1.0000 </r>
       <r>  -28.2097    1.0000 </r>
       <r>  -28.1963    1.0000 </r>
       <r>  -26.5364    1.0000 </r>
       <r>  -26.5226    1.0000 </r>
       <r>  -26.4647    1.0000 </r>
       <r>  -13.3337    1.0000 </r>
       <r>  -13.0796    1.0000 </r>
       <r>  -12.8934    1.0000 </r>
       <r>  -12.6913    1.0000 </r>
       <r>  -12.4810    1.0000 </r>
       <r>  -12.2771    1.0000 </r>
       <r>  -12.1949    1.0000 </r>
       <r>  -12.1256    1.0000 </r>
       <r>  -12.0337    1.0000 </r>
       <r>  -10.9416    1.0000 </r>
       <r>  -10.9235    1.0000 </r>
       <r>  -10.8736    1.0000 </r>
       <r>  -10.8065    1.0000 </r>
       <r>  -10.7117    1.0000 </r>
       <r>  -10.7030    1.0000 </r>
       <r>  -10.6455    1.0000 </r>
       <r>  -10.4613    1.0000 </r>
       <r>  -10.4602    1.0000 </r>
       <r>   -0.2424    1.0000 </r>
       <r>   -0.1305    1.0000 </r>
       <r>   -0.0597    1.0000 </r>
       <r>    0.4642    1.0000 </r>
       <r>    0.4975    1.0000 </r>
       <r>    0.6374    1.0000 </r>
       <r>    0.7277    1.0000 </r>
       <r>    0.7830    1.0000 </r>
       <r>    0.8756    1.0000 </r>
       <r>    1.2205    1.0000 </r>
       <r>    1.2621    1.0000 </r>
       <r>    1.3512    1.0000 </r>
       <r>    1.4343    1.0000 </r>
       <r>    1.5554    1.0000 </r>
       <r>    1.8369    1.0000 </r>
       <r>    1.9779    1.0000 </r>
       <r>    2.1199    1.0000 </r>
       <r>    2.2562    1.0000 </r>
       <r>    2.4816    1.0000 </r>
       <r>    2.6910    1.0000 </r>
       <r>    2.7828    1.0000 </r>
       <r>    3.0520    1.0000 </r>
       <r>    3.0616    1.0000 </r>
       <r>    3.1879    1.0000 </r>
       <r>    3.2012    1.0000 </r>
       <r>    3.3399    1.0000 </r>
       <r>    3.5681    1.0000 </r>
       <r>    6.6245    0.3195 </r>
       <r>    7.3938   -0.0285 </r>
       <r>    7.4615   -0.0040 </r>
       <r>    7.5534    0.0000 </r>
       <r>    7.6072    0.0000 </r>
       <r>    7.8041    0.0000 </r>
       <r>    7.8162    0.0000 </r>
       <r>    8.0000    0.0000 </r>
       <r>    8.1558    0.0000 </r>
       <r>    9.1041    0.0000 </r>
       <r>    9.8244    0.0000 </r>
       <r>   10.1545    0.0000 </r>
      </set>
      <set comment="kpoint 7">
       <r>  -51.9509    1.0000 </r>
       <r>  -51.9501    1.0000 </r>
       <r>  -50.2954    1.0000 </r>
       <r>  -28.9786    1.0000 </r>
       <r>  -28.9738    1.0000 </r>
       <r>  -28.8037    1.0000 </r>
       <r>  -28.2513    1.0000 </r>
       <r>  -28.2462    1.0000 </r>
       <r>  -28.2346    1.0000 </r>
       <r>  -28.2107    1.0000 </r>
       <r>  -28.2092    1.0000 </r>
       <r>  -28.1967    1.0000 </r>
       <r>  -26.5908    1.0000 </r>
       <r>  -26.5215    1.0000 </r>
       <r>  -26.4630    1.0000 </r>
       <r>  -13.3829    1.0000 </r>
       <r>  -13.0023    1.0000 </r>
       <r>  -12.7979    1.0000 </r>
       <r>  -12.5470    1.0000 </r>
       <r>  -12.3496    1.0000 </r>
       <r>  -12.2670    1.0000 </r>
       <r>  -12.1257    1.0000 </r>
       <r>  -12.0918    1.0000 </r>
       <r>  -12.0272    1.0000 </r>
       <r>  -10.9885    1.0000 </r>
       <r>  -10.8986    1.0000 </r>
       <r>  -10.8564    1.0000 </r>
       <r>  -10.8466    1.0000 </r>
       <r>  -10.6551    1.0000 </r>
       <r>  -10.6016    1.0000 </r>
       <r>  -10.6006    1.0000 </r>
       <r>  -10.5003    1.0000 </r>
       <r>  -10.3666    1.0000 </r>
       <r>   -1.1495    1.0000 </r>
       <r>   -0.4244    1.0000 </r>
       <r>   -0.1171    1.0000 </r>
       <r>    0.1331    1.0000 </r>
       <r>    0.1494    1.0000 </r>
       <r>    0.3105    1.0000 </r>
       <r>    0.3451    1.0000 </r>
       <r>    0.5515    1.0000 </r>
       <r>    0.7834    1.0000 </r>
       <r>    1.1176    1.0000 </r>
       <r>    1.1506    1.0000 </r>
       <r>    1.2868    1.0000 </r>
       <r>    1.3499    1.0000 </r>
       <r>    1.4199    1.0000 </r>
       <r>    1.7146    1.0000 </r>
       <r>    1.7417    1.0000 </r>
       <r>    1.9766    1.0000 </r>
       <r>    2.0188    1.0000 </r>
       <r>    2.4078    1.0000 </r>
       <r>    2.6553    1.0000 </r>
       <r>    2.7879    1.0000 </r>
       <r>    2.9810    1.0000 </r>
       <r>    3.0029    1.0000 </r>
       <r>    3.0736    1.0000 </r>
       <r>    3.1349    1.0000 </r>
       <r>    3.5273    1.0000 </r>
       <r>    3.7787    1.0000 </r>
       <r>    6.6789    0.1600 </r>
       <r>    7.8234    0.0000 </r>
       <r>    7.8596    0.0000 </r>
       <r>    7.9549    0.0000 </r>
       <r>    7.9750    0.0000 </r>
       <r>    8.0243    0.0000 </r>
       <r>    8.3046    0.0000 </r>
       <r>    8.3745    0.0000 </r>
       <r>    8.7138    0.0000 </r>
       <r>    9.1129    0.0000 </r>
       <r>    9.9287    0.0000 </r>
       <r>   10.6072    0.0000 </r>
      </set>
      <set comment="kpoint 8">
       <r>  -51.9508    1.0000 </r>
       <r>  -51.9500    1.0000 </r>
       <r>  -50.2952    1.0000 </r>
       <r>  -28.9758    1.0000 </r>
       <r>  -28.9719    1.0000 </r>
       <r>  -28.8014    1.0000 </r>
       <r>  -28.2361    1.0000 </r>
       <r>  -28.2344    1.0000 </r>
       <r>  -28.2336    1.0000 </r>
       <r>  -28.2324    1.0000 </r>
       <r>  -28.2292    1.0000 </r>
       <r>  -28.1960    1.0000 </r>
       <r>  -26.5347    1.0000 </r>
       <r>  -26.5342    1.0000 </r>
       <r>  -26.5205    1.0000 </r>
       <r>  -13.1247    1.0000 </r>
       <r>  -12.8079    1.0000 </r>
       <r>  -12.7107    1.0000 </r>
       <r>  -12.6049    1.0000 </r>
       <r>  -12.4177    1.0000 </r>
       <r>  -12.2002    1.0000 </r>
       <r>  -12.1448    1.0000 </r>
       <r>  -12.1404    1.0000 </r>
       <r>  -12.0991    1.0000 </r>
       <r>  -10.9660    1.0000 </r>
       <r>  -10.9208    1.0000 </r>
       <r>  -10.8805    1.0000 </r>
       <r>  -10.8773    1.0000 </r>
       <r>  -10.8173    1.0000 </r>
       <r>  -10.7214    1.0000 </r>
       <r>  -10.5951    1.0000 </r>
       <r>  -10.5022    1.0000 </r>
       <r>  -10.4484    1.0000 </r>
       <r>   -0.2670    1.0000 </r>
       <r>   -0.2625    1.0000 </r>
       <r>   -0.1779    1.0000 </r>
       <r>   -0.1481    1.0000 </r>
       <r>    0.2786    1.0000 </r>
       <r>    0.2931    1.0000 </r>
       <r>    0.5285    1.0000 </r>
       <r>    0.5575    1.0000 </r>
       <r>    0.7526    1.0000 </r>
       <r>    0.8009    1.0000 </r>
       <r>    0.9507    1.0000 </r>
       <r>    0.9997    1.0000 </r>
       <r>    1.0018    1.0000 </r>
       <r>    1.1014    1.0000 </r>
       <r>    1.2434    1.0000 </r>
       <r>    1.3911    1.0000 </r>
       <r>    1.8719    1.0000 </r>
       <r>    2.2568    1.0000 </r>
       <r>    2.5172    1.0000 </r>
       <r>    2.7932    1.0000 </r>
       <r>    2.9015    1.0000 </r>
       <r>    3.1774    1.0000 </r>
       <r>    3.2771    1.0000 </r>
       <r>    3.4096    1.0000 </r>
       <r>    3.4647    1.0000 </r>
       <r>    3.5111    1.0000 </r>
       <r>    3.6468    1.0000 </r>
       <r>    7.3613   -0.0167 </r>
       <r>    7.4814    0.0000 </r>
       <r>    7.7953    0.0000 </r>
       <r>    7.9057    0.0000 </r>
       <r>    8.0537    0.0000 </r>
       <r>    8.0714    0.0000 </r>
       <r>    8.1862    0.0000 </r>
       <r>    8.2327    0.0000 </r>
       <r>    8.2950    0.0000 </r>
       <r>    9.4357    0.0000 </r>
       <r>   10.8416    0.0000 </r>
       <r>   10.8791    0.0000 </r>
      </set>
      <set comment="kpoint 9">
       <r>  -51.9505    1.0000 </r>
       <r>  -51.9496    1.0000 </r>
       <r>  -50.2943    1.0000 </r>
       <r>  -28.9698    1.0000 </r>
       <r>  -28.9659    1.0000 </r>
       <r>  -28.7949    1.0000 </r>
       <r>  -28.2522    1.0000 </r>
       <r>  -28.2507    1.0000 </r>
       <r>  -28.2350    1.0000 </r>
       <r>  -28.2336    1.0000 </r>
       <r>  -28.2336    1.0000 </r>
       <r>  -28.1958    1.0000 </r>
       <r>  -26.5892    1.0000 </r>
       <r>  -26.5330    1.0000 </r>
       <r>  -26.5189    1.0000 </r>
       <r>  -13.0829    1.0000 </r>
       <r>  -12.6404    1.0000 </r>
       <r>  -12.5673    1.0000 </r>
       <r>  -12.4314    1.0000 </r>
       <r>  -12.3117    1.0000 </r>
       <r>  -12.1986    1.0000 </r>
       <r>  -12.1734    1.0000 </r>
       <r>  -12.0918    1.0000 </r>
       <r>  -11.9786    1.0000 </r>
       <r>  -11.0760    1.0000 </r>
       <r>  -10.9942    1.0000 </r>
       <r>  -10.9202    1.0000 </r>
       <r>  -10.8363    1.0000 </r>
       <r>  -10.7950    1.0000 </r>
       <r>  -10.7516    1.0000 </r>
       <r>  -10.5881    1.0000 </r>
       <r>  -10.5268    1.0000 </r>
       <r>  -10.4243    1.0000 </r>
       <r>   -1.1605    1.0000 </r>
       <r>   -0.4585    1.0000 </r>
       <r>   -0.2676    1.0000 </r>
       <r>   -0.2497    1.0000 </r>
       <r>    0.0620    1.0000 </r>
       <r>    0.1025    1.0000 </r>
       <r>    0.3201    1.0000 </r>
       <r>    0.3210    1.0000 </r>
       <r>    0.4406    1.0000 </r>
       <r>    0.6354    1.0000 </r>
       <r>    0.6663    1.0000 </r>
       <r>    0.8481    1.0000 </r>
       <r>    0.8802    1.0000 </r>
       <r>    1.0008    1.0000 </r>
       <r>    1.0212    1.0000 </r>
       <r>    1.4461    1.0000 </r>
       <r>    1.6196    1.0000 </r>
       <r>    2.2118    1.0000 </r>
       <r>    2.4771    1.0000 </r>
       <r>    2.6851    1.0000 </r>
       <r>    3.0760    1.0000 </r>
       <r>    3.2070    1.0000 </r>
       <r>    3.4522    1.0000 </r>
       <r>    3.4558    1.0000 </r>
       <r>    3.6064    1.0000 </r>
       <r>    3.6800    1.0000 </r>
       <r>    3.7960    1.0000 </r>
       <r>    7.4480    0.0000 </r>
       <r>    7.9753    0.0000 </r>
       <r>    8.1133    0.0000 </r>
       <r>    8.1672    0.0000 </r>
       <r>    8.2534    0.0000 </r>
       <r>    8.3478    0.0000 </r>
       <r>    8.3763    0.0000 </r>
       <r>    8.7917    0.0000 </r>
       <r>    8.8133    0.0000 </r>
       <r>    9.5178    0.0000 </r>
       <r>   10.9402    0.0000 </r>
       <r>   11.1136    0.0000 </r>
      </set>
      <set comment="kpoint 10">
       <r>  -51.9501    1.0000 </r>
       <r>  -51.9492    1.0000 </r>
       <r>  -50.2933    1.0000 </r>
       <r>  -28.9627    1.0000 </r>
       <r>  -28.9595    1.0000 </r>
       <r>  -28.7876    1.0000 </r>
       <r>  -28.2549    1.0000 </r>
       <r>  -28.2536    1.0000 </r>
       <r>  -28.2531    1.0000 </r>
       <r>  -28.2527    1.0000 </r>
       <r>  -28.2331    1.0000 </r>
       <r>  -28.1950    1.0000 </r>
       <r>  -26.5879    1.0000 </r>
       <r>  -26.5878    1.0000 </r>
       <r>  -26.5168    1.0000 </r>
       <r>  -12.8330    1.0000 </r>
       <r>  -12.4158    1.0000 </r>
       <r>  -12.3553    1.0000 </r>
       <r>  -12.3083    1.0000 </r>
       <r>  -12.2815    1.0000 </r>
       <r>  -12.1374    1.0000 </r>
       <r>  -12.1259    1.0000 </r>
       <r>  -12.0734    1.0000 </r>
       <r>  -11.9890    1.0000 </r>
       <r>  -11.1112    1.0000 </r>
       <r>  -11.0737    1.0000 </r>
       <r>  -10.9996    1.0000 </r>
       <r>  -10.9342    1.0000 </r>
       <r>  -10.8324    1.0000 </r>
       <r>  -10.8140    1.0000 </r>
       <r>  -10.7237    1.0000 </r>
       <r>  -10.4574    1.0000 </r>
       <r>  -10.4386    1.0000 </r>
       <r>   -1.3049    1.0000 </r>
       <r>   -0.9621    1.0000 </r>
       <r>   -0.8313    1.0000 </r>
       <r>   -0.1664    1.0000 </r>
       <r>   -0.1260    1.0000 </r>
       <r>   -0.0353    1.0000 </r>
       <r>    0.0458    1.0000 </r>
       <r>    0.2363    1.0000 </r>
       <r>    0.2693    1.0000 </r>
       <r>    0.4753    1.0000 </r>
       <r>    0.4884    1.0000 </r>
       <r>    0.5807    1.0000 </r>
       <r>    0.6471    1.0000 </r>
       <r>    0.7497    1.0000 </r>
       <r>    0.7914    1.0000 </r>
       <r>    1.4360    1.0000 </r>
       <r>    1.4992    1.0000 </r>
       <r>    2.3551    1.0000 </r>
       <r>    2.4182    1.0000 </r>
       <r>    2.4930    1.0000 </r>
       <r>    3.4347    1.0000 </r>
       <r>    3.4853    1.0000 </r>
       <r>    3.5285    1.0000 </r>
       <r>    3.7014    1.0000 </r>
       <r>    3.7430    1.0000 </r>
       <r>    3.9750    1.0000 </r>
       <r>    3.9960    1.0000 </r>
       <r>    7.9800    0.0000 </r>
       <r>    7.9996    0.0000 </r>
       <r>    8.4072    0.0000 </r>
       <r>    8.4330    0.0000 </r>
       <r>    8.4383    0.0000 </r>
       <r>    8.5112    0.0000 </r>
       <r>    8.8792    0.0000 </r>
       <r>    8.8994    0.0000 </r>
       <r>    9.3084    0.0000 </r>
       <r>    9.6279    0.0000 </r>
       <r>   10.8891    0.0000 </r>
       <r>   11.0019    0.0000 </r>
      </set>
      <set comment="kpoint 11">
       <r>  -51.9522    1.0000 </r>
       <r>  -51.9514    1.0000 </r>
       <r>  -50.2986    1.0000 </r>
       <r>  -28.9942    1.0000 </r>
       <r>  -28.9933    1.0000 </r>
       <r>  -28.8231    1.0000 </r>
       <r>  -28.2257    1.0000 </r>
       <r>  -28.2020    1.0000 </r>
       <r>  -28.2020    1.0000 </r>
       <r>  -28.2005    1.0000 </r>
       <r>  -28.2005    1.0000 </r>
       <r>  -28.1953    1.0000 </r>
       <r>  -26.5249    1.0000 </r>
       <r>  -26.4365    1.0000 </r>
       <r>  -26.4365    1.0000 </r>
       <r>  -13.6656    1.0000 </r>
       <r>  -13.2180    1.0000 </r>
       <r>  -13.1155    1.0000 </r>
       <r>  -13.1118    1.0000 </r>
       <r>  -12.5563    1.0000 </r>
       <r>  -12.2017    1.0000 </r>
       <r>  -12.0711    1.0000 </r>
       <r>  -12.0537    1.0000 </r>
       <r>  -11.9665    1.0000 </r>
       <r>  -10.9621    1.0000 </r>
       <r>  -10.9621    1.0000 </r>
       <r>  -10.9573    1.0000 </r>
       <r>  -10.9573    1.0000 </r>
       <r>  -10.8387    1.0000 </r>
       <r>  -10.7765    1.0000 </r>
       <r>  -10.7765    1.0000 </r>
       <r>  -10.6685    1.0000 </r>
       <r>  -10.3463    1.0000 </r>
       <r>   -0.2974    1.0000 </r>
       <r>    0.8077    1.0000 </r>
       <r>    1.2124    1.0000 </r>
       <r>    1.3413    1.0000 </r>
       <r>    1.3413    1.0000 </r>
       <r>    1.3577    1.0000 </r>
       <r>    1.3577    1.0000 </r>
       <r>    1.4192    1.0000 </r>
       <r>    1.4192    1.0000 </r>
       <r>    1.5275    1.0000 </r>
       <r>    1.6855    1.0000 </r>
       <r>    1.6855    1.0000 </r>
       <r>    1.9831    1.0000 </r>
       <r>    2.3361    1.0000 </r>
       <r>    2.3361    1.0000 </r>
       <r>    2.5319    1.0000 </r>
       <r>    2.5442    1.0000 </r>
       <r>    2.6634    1.0000 </r>
       <r>    2.6634    1.0000 </r>
       <r>    2.8432    1.0000 </r>
       <r>    2.9194    1.0000 </r>
       <r>    2.9194    1.0000 </r>
       <r>    3.2379    1.0000 </r>
       <r>    3.5499    1.0000 </r>
       <r>    3.5499    1.0000 </r>
       <r>    3.6508    1.0000 </r>
       <r>    3.6508    1.0000 </r>
       <r>    5.7571    1.0287 </r>
       <r>    6.2880    1.0560 </r>
       <r>    6.3876    1.1338 </r>
       <r>    6.4003    0.8710 </r>
       <r>    6.4003    0.7622 </r>
       <r>    7.0214    0.0000 </r>
       <r>    7.0214    0.0000 </r>
       <r>    8.0647    0.0000 </r>
       <r>    8.0647    0.0000 </r>
       <r>    8.5429    0.0000 </r>
       <r>    8.5492    0.0000 </r>
       <r>    9.0385    0.0000 </r>
      </set>
      <set comment="kpoint 12">
       <r>  -51.9520    1.0000 </r>
       <r>  -51.9512    1.0000 </r>
       <r>  -50.2981    1.0000 </r>
       <r>  -28.9917    1.0000 </r>
       <r>  -28.9902    1.0000 </r>
       <r>  -28.8200    1.0000 </r>
       <r>  -28.2277    1.0000 </r>
       <r>  -28.2107    1.0000 </r>
       <r>  -28.2104    1.0000 </r>
       <r>  -28.2015    1.0000 </r>
       <r>  -28.2000    1.0000 </r>
       <r>  -28.1955    1.0000 </r>
       <r>  -26.5245    1.0000 </r>
       <r>  -26.4679    1.0000 </r>
       <r>  -26.4355    1.0000 </r>
       <r>  -13.5677    1.0000 </r>
       <r>  -13.1771    1.0000 </r>
       <r>  -13.0947    1.0000 </r>
       <r>  -13.0110    1.0000 </r>
       <r>  -12.5663    1.0000 </r>
       <r>  -12.2381    1.0000 </r>
       <r>  -12.0845    1.0000 </r>
       <r>  -12.0769    1.0000 </r>
       <r>  -12.0374    1.0000 </r>
       <r>  -10.9553    1.0000 </r>
       <r>  -10.9496    1.0000 </r>
       <r>  -10.8843    1.0000 </r>
       <r>  -10.8493    1.0000 </r>
       <r>  -10.8215    1.0000 </r>
       <r>  -10.7690    1.0000 </r>
       <r>  -10.7240    1.0000 </r>
       <r>  -10.6342    1.0000 </r>
       <r>  -10.3802    1.0000 </r>
       <r>   -0.3063    1.0000 </r>
       <r>    0.5581    1.0000 </r>
       <r>    0.7912    1.0000 </r>
       <r>    0.9943    1.0000 </r>
       <r>    1.1116    1.0000 </r>
       <r>    1.2737    1.0000 </r>
       <r>    1.2834    1.0000 </r>
       <r>    1.3100    1.0000 </r>
       <r>    1.3376    1.0000 </r>
       <r>    1.4150    1.0000 </r>
       <r>    1.6274    1.0000 </r>
       <r>    1.7030    1.0000 </r>
       <r>    1.8744    1.0000 </r>
       <r>    2.1795    1.0000 </r>
       <r>    2.2692    1.0000 </r>
       <r>    2.3321    1.0000 </r>
       <r>    2.4679    1.0000 </r>
       <r>    2.5938    1.0000 </r>
       <r>    2.6613    1.0000 </r>
       <r>    2.7874    1.0000 </r>
       <r>    2.9323    1.0000 </r>
       <r>    3.0134    1.0000 </r>
       <r>    3.1165    1.0000 </r>
       <r>    3.2026    1.0000 </r>
       <r>    3.3245    1.0000 </r>
       <r>    3.3454    1.0000 </r>
       <r>    3.4802    1.0000 </r>
       <r>    6.3040    1.0588 </r>
       <r>    6.4245    0.7422 </r>
       <r>    6.6648    0.1289 </r>
       <r>    6.7128    0.0451 </r>
       <r>    6.7404    0.0252 </r>
       <r>    7.0469    0.0000 </r>
       <r>    7.1674    0.0000 </r>
       <r>    8.0694    0.0000 </r>
       <r>    8.1036    0.0000 </r>
       <r>    8.7931    0.0000 </r>
       <r>    8.8826    0.0000 </r>
       <r>    9.3388    0.0000 </r>
      </set>
      <set comment="kpoint 13">
       <r>  -51.9515    1.0000 </r>
       <r>  -51.9507    1.0000 </r>
       <r>  -50.2969    1.0000 </r>
       <r>  -28.9862    1.0000 </r>
       <r>  -28.9833    1.0000 </r>
       <r>  -28.8132    1.0000 </r>
       <r>  -28.2332    1.0000 </r>
       <r>  -28.2332    1.0000 </r>
       <r>  -28.2280    1.0000 </r>
       <r>  -28.2006    1.0000 </r>
       <r>  -28.1991    1.0000 </r>
       <r>  -28.1962    1.0000 </r>
       <r>  -26.5372    1.0000 </r>
       <r>  -26.5235    1.0000 </r>
       <r>  -26.4331    1.0000 </r>
       <r>  -13.4775    1.0000 </r>
       <r>  -13.1301    1.0000 </r>
       <r>  -13.0323    1.0000 </r>
       <r>  -12.7187    1.0000 </r>
       <r>  -12.5079    1.0000 </r>
       <r>  -12.2640    1.0000 </r>
       <r>  -12.2283    1.0000 </r>
       <r>  -12.0745    1.0000 </r>
       <r>  -12.0355    1.0000 </r>
       <r>  -10.9401    1.0000 </r>
       <r>  -10.9322    1.0000 </r>
       <r>  -10.8414    1.0000 </r>
       <r>  -10.7520    1.0000 </r>
       <r>  -10.7340    1.0000 </r>
       <r>  -10.6780    1.0000 </r>
       <r>  -10.6515    1.0000 </r>
       <r>  -10.4672    1.0000 </r>
       <r>  -10.4407    1.0000 </r>
       <r>   -0.3723    1.0000 </r>
       <r>   -0.1654    1.0000 </r>
       <r>   -0.0878    1.0000 </r>
       <r>    0.4960    1.0000 </r>
       <r>    0.6973    1.0000 </r>
       <r>    0.9176    1.0000 </r>
       <r>    1.0360    1.0000 </r>
       <r>    1.0465    1.0000 </r>
       <r>    1.2111    1.0000 </r>
       <r>    1.2276    1.0000 </r>
       <r>    1.4078    1.0000 </r>
       <r>    1.5296    1.0000 </r>
       <r>    1.6373    1.0000 </r>
       <r>    1.8606    1.0000 </r>
       <r>    1.8930    1.0000 </r>
       <r>    2.0406    1.0000 </r>
       <r>    2.1460    1.0000 </r>
       <r>    2.5032    1.0000 </r>
       <r>    2.5611    1.0000 </r>
       <r>    2.6445    1.0000 </r>
       <r>    2.7569    1.0000 </r>
       <r>    2.7904    1.0000 </r>
       <r>    3.0217    1.0000 </r>
       <r>    3.1016    1.0000 </r>
       <r>    3.2299    1.0000 </r>
       <r>    3.2481    1.0000 </r>
       <r>    3.5604    1.0000 </r>
       <r>    6.4844    0.8659 </r>
       <r>    7.0647   -0.0347 </r>
       <r>    7.3799   -0.0039 </r>
       <r>    7.4171    0.0000 </r>
       <r>    7.4190    0.0000 </r>
       <r>    7.4477    0.0000 </r>
       <r>    7.6775    0.0000 </r>
       <r>    8.0806    0.0000 </r>
       <r>    8.3450    0.0000 </r>
       <r>    8.8784    0.0000 </r>
       <r>    9.2032    0.0000 </r>
       <r>   10.0725    0.0000 </r>
      </set>
      <set comment="kpoint 14">
       <r>  -51.9511    1.0000 </r>
       <r>  -51.9503    1.0000 </r>
       <r>  -50.2960    1.0000 </r>
       <r>  -28.9818    1.0000 </r>
       <r>  -28.9780    1.0000 </r>
       <r>  -28.8076    1.0000 </r>
       <r>  -28.2509    1.0000 </r>
       <r>  -28.2443    1.0000 </r>
       <r>  -28.2352    1.0000 </r>
       <r>  -28.1998    1.0000 </r>
       <r>  -28.1984    1.0000 </r>
       <r>  -28.1968    1.0000 </r>
       <r>  -26.5915    1.0000 </r>
       <r>  -26.5227    1.0000 </r>
       <r>  -26.4312    1.0000 </r>
       <r>  -13.5051    1.0000 </r>
       <r>  -13.1527    1.0000 </r>
       <r>  -12.9542    1.0000 </r>
       <r>  -12.5014    1.0000 </r>
       <r>  -12.3970    1.0000 </r>
       <r>  -12.2524    1.0000 </r>
       <r>  -12.1828    1.0000 </r>
       <r>  -12.0841    1.0000 </r>
       <r>  -12.0387    1.0000 </r>
       <r>  -10.9277    1.0000 </r>
       <r>  -10.9181    1.0000 </r>
       <r>  -10.8266    1.0000 </r>
       <r>  -10.7383    1.0000 </r>
       <r>  -10.7199    1.0000 </r>
       <r>  -10.5670    1.0000 </r>
       <r>  -10.5356    1.0000 </r>
       <r>  -10.4721    1.0000 </r>
       <r>  -10.3354    1.0000 </r>
       <r>   -1.1510    1.0000 </r>
       <r>   -0.5669    1.0000 </r>
       <r>   -0.3304    1.0000 </r>
       <r>    0.2042    1.0000 </r>
       <r>    0.2938    1.0000 </r>
       <r>    0.3967    1.0000 </r>
       <r>    0.8408    1.0000 </r>
       <r>    0.9284    1.0000 </r>
       <r>    1.0275    1.0000 </r>
       <r>    1.1083    1.0000 </r>
       <r>    1.3305    1.0000 </r>
       <r>    1.4044    1.0000 </r>
       <r>    1.4846    1.0000 </r>
       <r>    1.6767    1.0000 </r>
       <r>    1.7116    1.0000 </r>
       <r>    1.9011    1.0000 </r>
       <r>    2.1495    1.0000 </r>
       <r>    2.2755    1.0000 </r>
       <r>    2.4076    1.0000 </r>
       <r>    2.5401    1.0000 </r>
       <r>    2.6351    1.0000 </r>
       <r>    2.7727    1.0000 </r>
       <r>    2.8471    1.0000 </r>
       <r>    3.0826    1.0000 </r>
       <r>    3.1322    1.0000 </r>
       <r>    3.2345    1.0000 </r>
       <r>    3.8550    1.0000 </r>
       <r>    6.5410    0.6273 </r>
       <r>    7.1136    0.0000 </r>
       <r>    7.9277    0.0000 </r>
       <r>    7.9401    0.0000 </r>
       <r>    7.9409    0.0000 </r>
       <r>    8.0895    0.0000 </r>
       <r>    8.1946    0.0000 </r>
       <r>    8.2398    0.0000 </r>
       <r>    8.7608    0.0000 </r>
       <r>    8.8940    0.0000 </r>
       <r>    9.2957    0.0000 </r>
       <r>   10.3631    0.0000 </r>
      </set>
      <set comment="kpoint 15">
       <r>  -51.9518    1.0000 </r>
       <r>  -51.9510    1.0000 </r>
       <r>  -50.2976    1.0000 </r>
       <r>  -28.9889    1.0000 </r>
       <r>  -28.9870    1.0000 </r>
       <r>  -28.8168    1.0000 </r>
       <r>  -28.2291    1.0000 </r>
       <r>  -28.2125    1.0000 </r>
       <r>  -28.2109    1.0000 </r>
       <r>  -28.2098    1.0000 </r>
       <r>  -28.2085    1.0000 </r>
       <r>  -28.1956    1.0000 </r>
       <r>  -26.5239    1.0000 </r>
       <r>  -26.4671    1.0000 </r>
       <r>  -26.4668    1.0000 </r>
       <r>  -13.4418    1.0000 </r>
       <r>  -13.1264    1.0000 </r>
       <r>  -13.0520    1.0000 </r>
       <r>  -12.9556    1.0000 </r>
       <r>  -12.5528    1.0000 </r>
       <r>  -12.2261    1.0000 </r>
       <r>  -12.1262    1.0000 </r>
       <r>  -12.1106    1.0000 </r>
       <r>  -12.0655    1.0000 </r>
       <r>  -10.9467    1.0000 </r>
       <r>  -10.9204    1.0000 </r>
       <r>  -10.8789    1.0000 </r>
       <r>  -10.8354    1.0000 </r>
       <r>  -10.7850    1.0000 </r>
       <r>  -10.7483    1.0000 </r>
       <r>  -10.7120    1.0000 </r>
       <r>  -10.5746    1.0000 </r>
       <r>  -10.4133    1.0000 </r>
       <r>   -0.3135    1.0000 </r>
       <r>    0.3995    1.0000 </r>
       <r>    0.6903    1.0000 </r>
       <r>    0.8463    1.0000 </r>
       <r>    0.8638    1.0000 </r>
       <r>    0.9866    1.0000 </r>
       <r>    1.0407    1.0000 </r>
       <r>    1.1824    1.0000 </r>
       <r>    1.3279    1.0000 </r>
       <r>    1.3679    1.0000 </r>
       <r>    1.4023    1.0000 </r>
[...]
       <r>    3.8838    1.0000 </r>
       <r>    7.5309    0.0000 </r>
       <r>    7.8587    0.0000 </r>
       <r>    7.9980    0.0000 </r>
       <r>    8.1679    0.0000 </r>
       <r>    8.2481    0.0000 </r>
       <r>    8.2829    0.0000 </r>
       <r>    8.5351    0.0000 </r>
       <r>    8.7894    0.0000 </r>
       <r>    8.9087    0.0000 </r>
       <r>    9.8505    0.0000 </r>
       <r>   10.6884    0.0000 </r>
       <r>   11.0882    0.0000 </r>
      </set>
      <set comment="kpoint 20">
       <r>  -51.9501    1.0000 </r>
       <r>  -51.9492    1.0000 </r>
       <r>  -50.2933    1.0000 </r>
       <r>  -28.9624    1.0000 </r>
       <r>  -28.9598    1.0000 </r>
       <r>  -28.7876    1.0000 </r>
       <r>  -28.2549    1.0000 </r>
       <r>  -28.2536    1.0000 </r>
       <r>  -28.2531    1.0000 </r>
       <r>  -28.2527    1.0000 </r>
       <r>  -28.2334    1.0000 </r>
       <r>  -28.1947    1.0000 </r>
       <r>  -26.5879    1.0000 </r>
       <r>  -26.5878    1.0000 </r>
       <r>  -26.5169    1.0000 </r>
       <r>  -12.7814    1.0000 </r>
       <r>  -12.5023    1.0000 </r>
       <r>  -12.3860    1.0000 </r>
       <r>  -12.3307    1.0000 </r>
       <r>  -12.2635    1.0000 </r>
       <r>  -12.1371    1.0000 </r>
       <r>  -12.1164    1.0000 </r>
       <r>  -12.0159    1.0000 </r>
       <r>  -11.9746    1.0000 </r>
       <r>  -11.1082    1.0000 </r>
       <r>  -11.0773    1.0000 </r>
       <r>  -11.0388    1.0000 </r>
       <r>  -10.9921    1.0000 </r>
       <r>  -10.8277    1.0000 </r>
       <r>  -10.7423    1.0000 </r>
       <r>  -10.6698    1.0000 </r>
       <r>  -10.4836    1.0000 </r>
       <r>  -10.4555    1.0000 </r>
       <r>   -1.3049    1.0000 </r>
       <r>   -0.9757    1.0000 </r>
       <r>   -0.8202    1.0000 </r>
       <r>   -0.3220    1.0000 </r>
       <r>   -0.1487    1.0000 </r>
       <r>   -0.0423    1.0000 </r>
       <r>    0.0425    1.0000 </r>
       <r>    0.1979    1.0000 </r>
       <r>    0.2098    1.0000 </r>
       <r>    0.4764    1.0000 </r>
       <r>    0.4862    1.0000 </r>
       <r>    0.6021    1.0000 </r>
       <r>    0.8275    1.0000 </r>
       <r>    0.8788    1.0000 </r>
       <r>    1.1709    1.0000 </r>
       <r>    1.3224    1.0000 </r>
       <r>    1.3240    1.0000 </r>
       <r>    2.0833    1.0000 </r>
       <r>    2.6675    1.0000 </r>
       <r>    2.6929    1.0000 </r>
       <r>    3.1514    1.0000 </r>
       <r>    3.1871    1.0000 </r>
       <r>    3.4536    1.0000 </r>
       <r>    3.8556    1.0000 </r>
       <r>    3.8935    1.0000 </r>
       <r>    3.9731    1.0000 </r>
       <r>    3.9919    1.0000 </r>
       <r>    8.0162    0.0000 </r>
       <r>    8.0354    0.0000 </r>
       <r>    8.3211    0.0000 </r>
       <r>    8.3359    0.0000 </r>
       <r>    8.4178    0.0000 </r>
       <r>    8.5088    0.0000 </r>
       <r>    8.9697    0.0000 </r>
       <r>    8.9961    0.0000 </r>
       <r>    9.3065    0.0000 </r>
       <r>    9.9698    0.0000 </r>
       <r>   10.7289    0.0000 </r>
       <r>   10.8629    0.0000 </r>
      </set>
     </set>
    </set>
   </array>
  </eigenvalues>
  <separator name="orbital magnetization" >
   <v name="MAGDIPOLOUT">      0.00000000      0.00000000      0.00000000</v>
  </separator>
  <dos>
   <i name="efermi">      6.60321322 </i>
   <total>
    <array>
     <dimension dim="1">gridpoints</dimension>
     <dimension dim="2">spin</dimension>
     <field>energy</field>
     <field>total</field>
     <field>integrated</field>
     <set>
      <set comment="spin 1">
       <r>   -55.1055     0.0000     0.0000 </r>
       <r>   -54.8743     0.0000     0.0000 </r>
       <r>   -54.6430     0.0000     0.0000 </r>
       <r>   -54.4118     0.0000     0.0000 </r>
       <r>   -54.1806     0.0000     0.0000 </r>
       <r>   -53.9493     0.0000     0.0000 </r>
       <r>   -53.7181     0.0000     0.0000 </r>
       <r>   -53.4868     0.0000     0.0000 </r>
       <r>   -53.2556     0.0000     0.0000 </r>
       <r>   -53.0244     0.0000     0.0000 </r>
       <r>   -52.7931     0.0000     0.0000 </r>
       <r>   -52.5619     0.0000     0.0000 </r>
       <r>   -52.3306     0.0000     0.0000 </r>
       <r>   -52.0994     0.0000     0.0000 </r>
       <r>   -51.8681     0.0000     4.0000 </r>
       <r>   -51.6369     0.0000     4.0000 </r>
       <r>   -51.4057     0.0000     4.0000 </r>
       <r>   -51.1744     0.0000     4.0000 </r>
       <r>   -50.9432     0.0000     4.0000 </r>
       <r>   -50.7119     0.0000     4.0000 </r>
       <r>   -50.4807     0.0000     4.0000 </r>
       <r>   -50.2495     0.0000     6.0000 </r>
       <r>   -50.0182     0.0000     6.0000 </r>
       <r>   -49.7870     0.0000     6.0000 </r>
       <r>   -49.5557     0.0000     6.0000 </r>
       <r>   -49.3245     0.0000     6.0000 </r>
       <r>   -49.0932     0.0000     6.0000 </r>
       <r>   -48.8620     0.0000     6.0000 </r>
       <r>   -48.6308     0.0000     6.0000 </r>
       <r>   -48.3995     0.0000     6.0000 </r>
       <r>   -48.1683     0.0000     6.0000 </r>
       <r>   -47.9370     0.0000     6.0000 </r>
       <r>   -47.7058     0.0000     6.0000 </r>
       <r>   -47.4746     0.0000     6.0000 </r>
       <r>   -47.2433     0.0000     6.0000 </r>
       <r>   -47.0121     0.0000     6.0000 </r>
       <r>   -46.7808     0.0000     6.0000 </r>
       <r>   -46.5496     0.0000     6.0000 </r>
       <r>   -46.3183     0.0000     6.0000 </r>
       <r>   -46.0871     0.0000     6.0000 </r>
       <r>   -45.8559     0.0000     6.0000 </r>
       <r>   -45.6246     0.0000     6.0000 </r>
       <r>   -45.3934     0.0000     6.0000 </r>
       <r>   -45.1621     0.0000     6.0000 </r>
       <r>   -44.9309     0.0000     6.0000 </r>
       <r>   -44.6997     0.0000     6.0000 </r>
       <r>   -44.4684     0.0000     6.0000 </r>
       <r>   -44.2372     0.0000     6.0000 </r>
       <r>   -44.0059     0.0000     6.0000 </r>
       <r>   -43.7747     0.0000     6.0000 </r>
       <r>   -43.5435     0.0000     6.0000 </r>
       <r>   -43.3122     0.0000     6.0000 </r>
       <r>   -43.0810     0.0000     6.0000 </r>
       <r>   -42.8497     0.0000     6.0000 </r>
       <r>   -42.6185     0.0000     6.0000 </r>
       <r>   -42.3872     0.0000     6.0000 </r>
       <r>   -42.1560     0.0000     6.0000 </r>
       <r>   -41.9248     0.0000     6.0000 </r>
       <r>   -41.6935     0.0000     6.0000 </r>
       <r>   -41.4623     0.0000     6.0000 </r>
       <r>   -41.2310     0.0000     6.0000 </r>
       <r>   -40.9998     0.0000     6.0000 </r>
       <r>   -40.7686     0.0000     6.0000 </r>
       <r>   -40.5373     0.0000     6.0000 </r>
       <r>   -40.3061     0.0000     6.0000 </r>
       <r>   -40.0748     0.0000     6.0000 </r>
       <r>   -39.8436     0.0000     6.0000 </r>
       <r>   -39.6123     0.0000     6.0000 </r>
       <r>   -39.3811     0.0000     6.0000 </r>
       <r>   -39.1499     0.0000     6.0000 </r>
       <r>   -38.9186     0.0000     6.0000 </r>
       <r>   -38.6874     0.0000     6.0000 </r>
       <r>   -38.4561     0.0000     6.0000 </r>
       <r>   -38.2249     0.0000     6.0000 </r>
       <r>   -37.9937     0.0000     6.0000 </r>
       <r>   -37.7624     0.0000     6.0000 </r>
       <r>   -37.5312     0.0000     6.0000 </r>
       <r>   -37.2999     0.0000     6.0000 </r>
       <r>   -37.0687     0.0000     6.0000 </r>
       <r>   -36.8374     0.0000     6.0000 </r>
       <r>   -36.6062     0.0000     6.0000 </r>
       <r>   -36.3750     0.0000     6.0000 </r>
       <r>   -36.1437     0.0000     6.0000 </r>
       <r>   -35.9125     0.0000     6.0000 </r>
       <r>   -35.6812     0.0000     6.0000 </r>
       <r>   -35.4500     0.0000     6.0000 </r>
       <r>   -35.2188     0.0000     6.0000 </r>
       <r>   -34.9875     0.0000     6.0000 </r>
       <r>   -34.7563     0.0000     6.0000 </r>
       <r>   -34.5250     0.0000     6.0000 </r>
       <r>   -34.2938     0.0000     6.0000 </r>
       <r>   -34.0626     0.0000     6.0000 </r>
       <r>   -33.8313     0.0000     6.0000 </r>
       <r>   -33.6001     0.0000     6.0000 </r>
       <r>   -33.3688     0.0000     6.0000 </r>
       <r>   -33.1376     0.0000     6.0000 </r>
       <r>   -32.9063     0.0000     6.0000 </r>
       <r>   -32.6751     0.0000     6.0000 </r>
       <r>   -32.4439     0.0000     6.0000 </r>
       <r>   -32.2126     0.0000     6.0000 </r>
       <r>   -31.9814     0.0000     6.0000 </r>
       <r>   -31.7501     0.0000     6.0000 </r>
       <r>   -31.5189     0.0000     6.0000 </r>
       <r>   -31.2877     0.0000     6.0000 </r>
       <r>   -31.0564     0.0000     6.0000 </r>
       <r>   -30.8252     0.0000     6.0000 </r>
       <r>   -30.5939     0.0000     6.0000 </r>
       <r>   -30.3627     0.0000     6.0000 </r>
       <r>   -30.1314     0.0000     6.0000 </r>
       <r>   -29.9002     0.0000     6.0000 </r>
       <r>   -29.6690     0.0000     6.0000 </r>
       <r>   -29.4377     0.0000     6.0000 </r>
       <r>   -29.2065     0.0000     6.0000 </r>
       <r>   -28.9752   163.9033     8.5669 </r>
       <r>   -28.7440     0.0000    12.0000 </r>
       <r>   -28.5128     0.0000    12.0000 </r>
       <r>   -28.2815     0.0000    12.0000 </r>
       <r>   -28.0503     0.0000    24.0000 </r>
       <r>   -27.8190     0.0000    24.0000 </r>
       <r>   -27.5878     0.0000    24.0000 </r>
       <r>   -27.3565     0.0000    24.0000 </r>
       <r>   -27.1253     0.0000    24.0000 </r>
       <r>   -26.8941     0.0000    24.0000 </r>
       <r>   -26.6628     0.0000    24.0000 </r>
       <r>   -26.4316     7.2156    29.9976 </r>
       <r>   -26.2003     0.0000    30.0000 </r>
       <r>   -25.9691     0.0000    30.0000 </r>
       <r>   -25.7379     0.0000    30.0000 </r>
       <r>   -25.5066     0.0000    30.0000 </r>
       <r>   -25.2754     0.0000    30.0000 </r>
       <r>   -25.0441     0.0000    30.0000 </r>
       <r>   -24.8129     0.0000    30.0000 </r>
       <r>   -24.5817     0.0000    30.0000 </r>
       <r>   -24.3504     0.0000    30.0000 </r>
       <r>   -24.1192     0.0000    30.0000 </r>
       <r>   -23.8879     0.0000    30.0000 </r>
       <r>   -23.6567     0.0000    30.0000 </r>
       <r>   -23.4254     0.0000    30.0000 </r>
       <r>   -23.1942     0.0000    30.0000 </r>
       <r>   -22.9630     0.0000    30.0000 </r>
       <r>   -22.7317     0.0000    30.0000 </r>
       <r>   -22.5005     0.0000    30.0000 </r>
       <r>   -22.2692     0.0000    30.0000 </r>
       <r>   -22.0380     0.0000    30.0000 </r>
       <r>   -21.8068     0.0000    30.0000 </r>
       <r>   -21.5755     0.0000    30.0000 </r>
       <r>   -21.3443     0.0000    30.0000 </r>
       <r>   -21.1130     0.0000    30.0000 </r>
       <r>   -20.8818     0.0000    30.0000 </r>
       <r>   -20.6505     0.0000    30.0000 </r>
       <r>   -20.4193     0.0000    30.0000 </r>
       <r>   -20.1881     0.0000    30.0000 </r>
       <r>   -19.9568     0.0000    30.0000 </r>
       <r>   -19.7256     0.0000    30.0000 </r>
       <r>   -19.4943     0.0000    30.0000 </r>
       <r>   -19.2631     0.0000    30.0000 </r>
       <r>   -19.0319     0.0000    30.0000 </r>
       <r>   -18.8006     0.0000    30.0000 </r>
       <r>   -18.5694     0.0000    30.0000 </r>
       <r>   -18.3381     0.0000    30.0000 </r>
       <r>   -18.1069     0.0000    30.0000 </r>
       <r>   -17.8756     0.0000    30.0000 </r>
       <r>   -17.6444     0.0000    30.0000 </r>
       <r>   -17.4132     0.0000    30.0000 </r>
       <r>   -17.1819     0.0000    30.0000 </r>
       <r>   -16.9507     0.0000    30.0000 </r>
       <r>   -16.7194     0.0000    30.0000 </r>
       <r>   -16.4882     0.0000    30.0000 </r>
       <r>   -16.2570     0.0000    30.0000 </r>
       <r>   -16.0257     0.0000    30.0000 </r>
       <r>   -15.7945     0.0000    30.0000 </r>
       <r>   -15.5632     0.0000    30.0000 </r>
       <r>   -15.3320     0.0000    30.0000 </r>
       <r>   -15.1007     0.0000    30.0000 </r>
       <r>   -14.8695     0.0000    30.0000 </r>
       <r>   -14.6383     0.0000    30.0000 </r>
       <r>   -14.4070     0.0000    30.0000 </r>
       <r>   -14.1758     0.0000    30.0000 </r>
       <r>   -13.9445     0.0000    30.0000 </r>
       <r>   -13.7133     0.0000    30.0000 </r>
       <r>   -13.4821     5.8655    30.3189 </r>
       <r>   -13.2508     2.2944    31.2691 </r>
       <r>   -13.0196     9.4892    33.2957 </r>
       <r>   -12.7883     6.5303    35.3201 </r>
       <r>   -12.5571    14.4108    36.7378 </r>
       <r>   -12.3259     9.6281    39.4866 </r>
       <r>   -12.0946    44.4244    45.0502 </r>
       <r>   -11.8634     0.0000    48.0000 </r>
       <r>   -11.6321     0.0000    48.0000 </r>
       <r>   -11.4009     0.0000    48.0000 </r>
       <r>   -11.1696     0.0000    48.0000 </r>
       <r>   -10.9384    50.0597    51.1558 </r>
       <r>   -10.7072    32.1689    58.5576 </r>
       <r>   -10.4759    24.9332    63.7287 </r>
       <r>   -10.2447     0.0000    66.0000 </r>
       <r>   -10.0134     0.0000    66.0000 </r>
       <r>    -9.7822     0.0000    66.0000 </r>
       <r>    -9.5510     0.0000    66.0000 </r>
       <r>    -9.3197     0.0000    66.0000 </r>
       <r>    -9.0885     0.0000    66.0000 </r>
       <r>    -8.8572     0.0000    66.0000 </r>
       <r>    -8.6260     0.0000    66.0000 </r>
       <r>    -8.3947     0.0000    66.0000 </r>
       <r>    -8.1635     0.0000    66.0000 </r>
       <r>    -7.9323     0.0000    66.0000 </r>
       <r>    -7.7010     0.0000    66.0000 </r>
       <r>    -7.4698     0.0000    66.0000 </r>
       <r>    -7.2385     0.0000    66.0000 </r>
       <r>    -7.0073     0.0000    66.0000 </r>
       <r>    -6.7761     0.0000    66.0000 </r>
       <r>    -6.5448     0.0000    66.0000 </r>
       <r>    -6.3136     0.0000    66.0000 </r>
       <r>    -6.0823     0.0000    66.0000 </r>
       <r>    -5.8511     0.0000    66.0000 </r>
       <r>    -5.6198     0.0000    66.0000 </r>
       <r>    -5.3886     0.0000    66.0000 </r>
       <r>    -5.1574     0.0000    66.0000 </r>
       <r>    -4.9261     0.0000    66.0000 </r>
       <r>    -4.6949     0.0000    66.0000 </r>
       <r>    -4.4636     0.0000    66.0000 </r>
       <r>    -4.2324     0.0000    66.0000 </r>
       <r>    -4.0012     0.0000    66.0000 </r>
       <r>    -3.7699     0.0000    66.0000 </r>
       <r>    -3.5387     0.0000    66.0000 </r>
       <r>    -3.3074     0.0000    66.0000 </r>
       <r>    -3.0762     0.0000    66.0000 </r>
       <r>    -2.8450     0.0000    66.0000 </r>
       <r>    -2.6137     0.0000    66.0000 </r>
       <r>    -2.3825     0.0000    66.0000 </r>
       <r>    -2.1512     0.0000    66.0000 </r>
       <r>    -1.9200     0.0000    66.0000 </r>
       <r>    -1.6887     0.0000    66.0000 </r>
       <r>    -1.4575     0.0000    66.0000 </r>
       <r>    -1.2263     1.5531    66.1468 </r>
       <r>    -0.9950     1.0223    66.7528 </r>
       <r>    -0.7638     1.8314    67.1668 </r>
       <r>    -0.5325     3.4312    67.6574 </r>
       <r>    -0.3013    13.3544    69.3580 </r>
       <r>    -0.0701     4.9650    71.5132 </r>
       <r>     0.1612    10.6029    73.1597 </r>
       <r>     0.3924    12.0452    76.1176 </r>
       <r>     0.6237    11.4768    78.7643 </r>
       <r>     0.8549    15.3591    81.7555 </r>
       <r>     1.0862    17.4161    85.6102 </r>
       <r>     1.3174    24.6135    89.8699 </r>
       <r>     1.5486    11.3923    93.7976 </r>
       <r>     1.7799     8.4270    96.1561 </r>
       <r>     2.0111     6.3486    97.8347 </r>
       <r>     2.2424     9.5364   100.0172 </r>
       <r>     2.4736    11.5681   101.9388 </r>
       <r>     2.7048    16.9358   105.2593 </r>
       <r>     2.9361     9.6201   108.2538 </r>
       <r>     3.1673    18.2379   112.0946 </r>
       <r>     3.3986    10.9469   115.7784 </r>
       <r>     3.6298     7.0569   117.9801 </r>
       <r>     3.8611    12.2347   119.5205 </r>
       <r>     4.0923     0.0000   120.0000 </r>
       <r>     4.3235     0.0000   120.0000 </r>
       <r>     4.5548     0.0000   120.0000 </r>
       <r>     4.7860     0.0000   120.0000 </r>
       <r>     5.0173     0.0000   120.0000 </r>
       <r>     5.2485     0.0000   120.0000 </r>
       <r>     5.4797     0.0000   120.0000 </r>
       <r>     5.7110     0.0000   120.0000 </r>
       <r>     5.9422     0.1362   120.0127 </r>
       <r>     6.1735     0.3412   120.0640 </r>
       <r>     6.4047     2.3775   120.3385 </r>
       <r>     6.6359     4.3988   121.1425 </r>
       <r>     6.8672     3.1169   122.0551 </r>
       <r>     7.0984     4.5448   122.8509 </r>
       <r>     7.3297     6.1368   124.1664 </r>
       <r>     7.5609     7.8915   125.7970 </r>
       <r>     7.7922     9.7206   127.8514 </r>
       <r>     8.0234    12.5092   130.9768 </r>
       <r>     8.2546    12.9448   133.9011 </r>
       <r>     8.4859     4.4509   135.9319 </r>
       <r>     8.7171     5.0175   136.8466 </r>
       <r>     8.9484     4.7456   138.1785 </r>
       <r>     9.1796     3.6081   139.0360 </r>
       <r>     9.4108     3.2845   139.9644 </r>
       <r>     9.6421     3.2709   140.7063 </r>
       <r>     9.8733     2.6592   141.3880 </r>
       <r>    10.1046     1.4537   141.7929 </r>
       <r>    10.3358     1.9340   142.1933 </r>
       <r>    10.5671     1.8172   142.6469 </r>
       <r>    10.7983     2.6075   143.2397 </r>
       <r>    11.0295     2.2173   143.8494 </r>
       <r>    11.2608     0.0000   144.0000 </r>
       <r>    11.4920     0.0000   144.0000 </r>
       <r>    11.7233     0.0000   144.0000 </r>
       <r>    11.9545     0.0000   144.0000 </r>
       <r>    12.1857     0.0000   144.0000 </r>
       <r>    12.4170     0.0000   144.0000 </r>
       <r>    12.6482     0.0000   144.0000 </r>
       <r>    12.8795     0.0000   144.0000 </r>
       <r>    13.1107     0.0000   144.0000 </r>
       <r>    13.3420     0.0000   144.0000 </r>
       <r>    13.5732     0.0000   144.0000 </r>
       <r>    13.8044     0.0000   144.0000 </r>
       <r>    14.0357     0.0000   144.0000 </r>
       <r>    14.2669     0.0000   144.0000 </r>
      </set>
     </set>
    </array>
   </total>
  </dos>
 </calculation>
 <structure name="finalpos" >
  <crystal>
   <varray name="basis" >
    <v>       0.00000000       0.00000000      -3.98514948 </v>
    <v>       0.00000000       3.98514948       0.00000000 </v>
    <v>      11.95432870       0.00000000       0.00000000 </v>
   </varray>
   <i name="volume">    189.85167153 </i>
   <varray name="rec_basis" >
    <v>       0.00000000       0.00000000      -0.25093162 </v>
    <v>       0.00000000       0.25093162       0.00000000 </v>
    <v>       0.08365171       0.00000000       0.00000000 </v>
   </varray>
  </crystal>
  <varray name="positions" >
   <v>       0.50000000       0.50000000       0.16666667 </v>
   <v>       0.50000000       0.50000000       0.33412827 </v>
   <v>       0.50000000       0.00000000       0.16666667 </v>
   <v>       0.00000000       0.50000000       0.16666667 </v>
   <v>       0.50000000       0.50000000       0.66666667 </v>
   <v>       0.50000000       0.00000000       0.50033061 </v>
   <v>       0.00000000       0.50000000       0.50033061 </v>
   <v>       0.50000000       0.50000000       0.99920506 </v>
   <v>       0.50000000       0.00000000       0.83300272 </v>
   <v>       0.00000000       0.50000000       0.83300272 </v>
   <v>       0.00000000       0.00000000       0.34734946 </v>
   <v>       0.00000000       0.00000000       0.66666667 </v>
   <v>       0.00000000       0.00000000       0.98598388 </v>
   <v>       0.50000000       0.50000000       0.50379097 </v>
   <v>       0.50000000       0.50000000       0.82954237 </v>
  </varray>
 </structure>
</modeling>
