 running on  100 total cores
 distrk:  each k-point on  100 cores,    1 groups
 distr:  one band on   25 cores,    4 groups
 using from now: INCAR     
 vasp.5.4.4.18Apr17-6-g9f103f2a35 (build May 23 2017 16:08:52) complex          
  
 POSCAR found :  4 types and      75 ions
 scaLAPACK will be used

 ----------------------------------------------------------------------------- 
|                                                                             |
|           W    W    AA    RRRRR   N    N  II  N    N   GGGG   !!!           |
|           W    W   A  A   R    R  NN   N  II  NN   N  G    G  !!!           |
|           W    W  A    A  R    R  N N  N  II  N N  N  G       !!!           |
|           W WW W  AAAAAA  RRRRR   N  N N  II  N  N N  G  GGG   !            |
|           WW  WW  A    A  R   R   N   NN  II  N   NN  G    G                |
|           W    W  A    A  R    R  N    N  II  N    N   GGGG   !!!           |
|                                                                             |
|      For optimal performance we recommend to set                            |
|        NCORE= 4 - approx SQRT( number of cores)                             |
|      NCORE specifies how many cores store one orbital (NPAR=cpu/NCORE).     |
|      This setting can  greatly improve the performance of VASP for DFT.     |
|      The default,   NCORE=1            might be grossly inefficient         |
|      on modern multi-core architectures or massively parallel machines.     |
|      Do your own testing !!!!                                               |
|      Unfortunately you need to use the default for GW and RPA calculations. |
|      (for HF NCORE is supported but not extensively tested yet)             |
|                                                                             |
 ----------------------------------------------------------------------------- 


 ----------------------------------------------------------------------------- 
|                                                                             |
|  ADVICE TO THIS USER RUNNING 'VASP/VAMP'   (HEAR YOUR MASTER'S VOICE ...):  |
|                                                                             |
|      You have a (more or less) 'large supercell' and for larger cells       |
|      it might be more efficient to use real space projection opertators     |
|      So try LREAL= Auto  in the INCAR   file.                               |
|      Mind:          For very  accurate calculation you might also keep the  |
|      reciprocal projection scheme          (i.e. LREAL=.FALSE.)             |
|                                                                             |
 ----------------------------------------------------------------------------- 

 LDA part: xc-table for Pade appr. of Perdew
 POSCAR, INCAR and KPOINTS ok, starting setup
 FFT: planning ...
 WAVECAR not read
 entering main loop
       N       E                     dE             d eps       ncg     rms          rms(c)
DAV:   1     0.774009844538E+04    0.77401E+04   -0.30027E+05 11648   0.175E+03
DAV:   2     0.937762374999E+03   -0.68023E+04   -0.64465E+04 11648   0.551E+02
DAV:   3    -0.611551494466E+03   -0.15493E+04   -0.14971E+04 16376   0.240E+02
DAV:   4    -0.732775363471E+03   -0.12122E+03   -0.11987E+03 16912   0.737E+01
DAV:   5    -0.743408528006E+03   -0.10633E+02   -0.10558E+02 21888   0.184E+01    0.954E+01
DAV:   6    -0.604430254572E+03    0.13898E+03   -0.81400E+02 16448   0.673E+01    0.570E+01
DAV:   7    -0.606878426890E+03   -0.24482E+01   -0.14424E+02 16104   0.269E+01    0.399E+01
DAV:   8    -0.611311863171E+03   -0.44334E+01   -0.53531E+01 17008   0.228E+01    0.194E+01
DAV:   9    -0.606587468938E+03    0.47244E+01   -0.30332E+01 16424   0.142E+01    0.104E+01
DAV:  10    -0.605338257727E+03    0.12492E+01   -0.10157E+01 15912   0.709E+00    0.475E+00
DAV:  11    -0.605095923152E+03    0.24233E+00   -0.18466E+00 17584   0.358E+00    0.287E+00
DAV:  12    -0.605117286101E+03   -0.21363E-01   -0.16497E+00 17336   0.231E+00    0.263E+00
DAV:  13    -0.605074983916E+03    0.42302E-01   -0.10291E+00 16336   0.188E+00    0.165E+00
DAV:  14    -0.605053726036E+03    0.21258E-01   -0.10397E-01 16768   0.866E-01    0.678E-01
DAV:  15    -0.605050333025E+03    0.33930E-02   -0.34118E-02 18496   0.521E-01    0.308E-01
DAV:  16    -0.605050627420E+03   -0.29440E-03   -0.88141E-03 16704   0.255E-01    0.158E-01
DAV:  17    -0.605050908438E+03   -0.28102E-03   -0.21617E-03 18992   0.148E-01    0.100E-01
DAV:  18    -0.605051205693E+03   -0.29725E-03   -0.92533E-04 16832   0.864E-02    0.684E-02
DAV:  19    -0.605051087614E+03    0.11808E-03   -0.62786E-04 16528   0.619E-02    0.437E-02
DAV:  20    -0.605051036384E+03    0.51230E-04   -0.14588E-04 14872   0.368E-02    0.264E-02
DAV:  21    -0.605051051164E+03   -0.14779E-04   -0.34944E-05  9512   0.210E-02    0.138E-02
DAV:  22    -0.605051020541E+03    0.30622E-04   -0.14232E-05  8696   0.149E-02    0.749E-03
DAV:  23    -0.605051050399E+03   -0.29858E-04   -0.52775E-06  6888   0.852E-03    0.263E-03
DAV:  24    -0.605051057033E+03   -0.66340E-05   -0.24195E-06  6688   0.399E-03
   1 F= -.60505106E+03 E0= -.60505106E+03  d E =-.605051E+03
 curvature:   0.00 expect dE= 0.000E+00 dE for cont linesearch  0.000E+00
 trial: gam= 0.00000 g(F)=  0.106E+01 g(S)=  0.152E+01 ort = 0.000E+00 (trialstep = 0.100E+01)
 search vector abs. value=  0.258E+01
 bond charge predicted
       N       E                     dE             d eps       ncg     rms          rms(c)
DAV:   1    -0.612698784797E+03   -0.76477E+01   -0.45480E+02 14624   0.666E+01    0.265E+01
DAV:   2    -0.608287786843E+03    0.44110E+01   -0.69855E+01 13920   0.228E+01    0.136E+01
DAV:   3    -0.606987203551E+03    0.13006E+01   -0.19303E+01 17048   0.107E+01    0.114E+01
DAV:   4    -0.606130461986E+03    0.85674E+00   -0.12698E+01 15784   0.842E+00    0.680E+00
DAV:   5    -0.606263645073E+03   -0.13318E+00   -0.89668E+00 17160   0.644E+00    0.618E+00
DAV:   6    -0.605765596663E+03    0.49805E+00   -0.34196E+00 18368   0.399E+00    0.464E+00
DAV:   7    -0.605542596618E+03    0.22300E+00   -0.13212E+00 17052   0.202E+00    0.337E+00
DAV:   8    -0.605532286131E+03    0.10310E-01   -0.18242E-01 18148   0.907E-01    0.267E+00
DAV:   9    -0.605550072416E+03   -0.17786E-01   -0.14484E-01 18248   0.111E+00    0.166E+00
DAV:  10    -0.605545958035E+03    0.41144E-02   -0.96776E-02 16772   0.808E-01    0.504E-01
DAV:  11    -0.605549931693E+03   -0.39737E-02   -0.34483E-02 18044   0.429E-01    0.356E-01
DAV:  12    -0.605549142861E+03    0.78883E-03   -0.11271E-02 17716   0.256E-01    0.266E-01
DAV:  13    -0.605548537738E+03    0.60512E-03   -0.33638E-03 17632   0.144E-01    0.130E-01
DAV:  14    -0.605548945616E+03   -0.40788E-03   -0.87283E-04 17012   0.918E-02    0.748E-02
DAV:  15    -0.605548752463E+03    0.19315E-03   -0.33130E-04 17176   0.549E-02    0.363E-02
DAV:  16    -0.605548603562E+03    0.14890E-03   -0.11685E-04 16080   0.322E-02    0.220E-02
DAV:  17    -0.605548519092E+03    0.84470E-04   -0.34329E-05 10432   0.185E-02    0.112E-02
DAV:  18    -0.605548476771E+03    0.42320E-04   -0.92790E-06  7040   0.110E-02    0.858E-03
DAV:  19    -0.605548493730E+03   -0.16958E-04   -0.49267E-06  6792   0.955E-03    0.543E-03
DAV:  20    -0.605548501432E+03   -0.77024E-05   -0.26134E-06  6432   0.602E-03
   2 F= -.60554850E+03 E0= -.60554850E+03  d E =-.497444E+00
 trial-energy change:   -0.497444  1 .order   -0.535444   -2.584138    1.513251
 step:   0.6175(harm=  0.6307)  dis= 0.03289  next Energy=  -605.840009 (dE=-0.789E+00)
 bond charge predicted
       N       E                     dE             d eps       ncg     rms          rms(c)
DAV:   1    -0.606992579082E+03   -0.14441E+01   -0.66732E+01 14596   0.258E+01    0.103E+01
DAV:   2    -0.606253345492E+03    0.73923E+00   -0.96378E+00 13784   0.779E+00    0.498E+00
DAV:   3    -0.606531021959E+03   -0.27768E+00   -0.59130E+00 16240   0.551E+00    0.559E+00
DAV:   4    -0.605962355346E+03    0.56867E+00   -0.27434E+00 15680   0.416E+00    0.283E+00
DAV:   5    -0.605836213046E+03    0.12614E+00   -0.16317E+00 16008   0.223E+00    0.148E+00
DAV:   6    -0.605844306086E+03   -0.80930E-02   -0.38003E-01 17528   0.147E+00    0.142E+00
DAV:   7    -0.605829650018E+03    0.14656E-01   -0.11778E-01 16824   0.711E-01    0.832E-01
DAV:   8    -0.605832779782E+03   -0.31298E-02   -0.12808E-02 19712   0.217E-01    0.722E-01
DAV:   9    -0.605837683018E+03   -0.49032E-02   -0.11153E-02 17440   0.262E-01    0.476E-01
DAV:  10    -0.605840557546E+03   -0.28745E-02   -0.16672E-02 17528   0.358E-01    0.245E-01
DAV:  11    -0.605839823137E+03    0.73441E-03   -0.39047E-03 18804   0.202E-01    0.669E-02
DAV:  12    -0.605840040924E+03   -0.21779E-03   -0.65317E-04 17744   0.471E-02    0.492E-02
DAV:  13    -0.605839997369E+03    0.43556E-04   -0.10151E-04 14548   0.255E-02    0.288E-02
DAV:  14    -0.605840091854E+03   -0.94485E-04   -0.35279E-05  9744   0.218E-02    0.139E-02
DAV:  15    -0.605840117600E+03   -0.25746E-04   -0.22539E-05  7780   0.177E-02    0.105E-02
DAV:  16    -0.605840130117E+03   -0.12517E-04   -0.13848E-05  6824   0.118E-02    0.592E-03
DAV:  17    -0.605840136559E+03   -0.64422E-05   -0.54938E-06  6628   0.744E-03
   3 F= -.60584014E+03 E0= -.60584014E+03  d E =-.789080E+00
 curvature:  -0.31 expect dE=-0.104E+00 dE for cont linesearch -0.191E-03
 trial: gam= 0.14297 g(F)=  0.232E+00 g(S)=  0.976E-01 ort =-0.396E-01 (trialstep = 0.924E+00)
 search vector abs. value=  0.371E+00
 bond charge predicted
       N       E                     dE             d eps       ncg     rms          rms(c)
DAV:   1    -0.605910463198E+03   -0.70333E-01   -0.39998E+01 14096   0.165E+01    0.335E+00
DAV:   2    -0.606066228485E+03   -0.15577E+00   -0.31726E+00 13288   0.385E+00    0.234E+00
DAV:   3    -0.606161722554E+03   -0.95494E-01   -0.10673E+00 16712   0.212E+00    0.294E+00
DAV:   4    -0.606057369908E+03    0.10435E+00   -0.99769E-01 15680   0.187E+00    0.125E+00
DAV:   5    -0.606048728464E+03    0.86414E-02   -0.11482E-01 17396   0.855E-01    0.675E-01
DAV:   6    -0.606046311806E+03    0.24167E-02   -0.19581E-02 17952   0.417E-01    0.361E-01
DAV:   7    -0.606047318367E+03   -0.10066E-02   -0.44035E-03 17260   0.139E-01    0.278E-01
DAV:   8    -0.606047955072E+03   -0.63670E-03   -0.13477E-03 18112   0.108E-01    0.191E-01
DAV:   9    -0.606048545917E+03   -0.59084E-03   -0.12496E-03 17196   0.117E-01    0.102E-01
DAV:  10    -0.606048379902E+03    0.16601E-03   -0.57665E-04 17004   0.717E-02    0.102E-01
DAV:  11    -0.606048158146E+03    0.22176E-03   -0.12115E-03 15088   0.319E-02    0.381E-02
DAV:  12    -0.606048405004E+03   -0.24686E-03   -0.72974E-05 11292   0.247E-02    0.206E-02
DAV:  13    -0.606048417806E+03   -0.12802E-04   -0.14933E-05  7856   0.153E-02    0.138E-02
DAV:  14    -0.606048400419E+03    0.17387E-04   -0.91758E-06  6848   0.119E-02    0.114E-02
DAV:  15    -0.606048430525E+03   -0.30106E-04   -0.70474E-06  6736   0.885E-03    0.481E-03
DAV:  16    -0.606048450123E+03   -0.19598E-04   -0.76840E-06  6376   0.541E-03    0.382E-02
DAV:  17    -0.606048429212E+03    0.20911E-04   -0.42774E-05  6360   0.342E-03    0.708E-03
DAV:  18    -0.606048428826E+03    0.38559E-06   -0.10393E-06  6320   0.231E-03
   4 F= -.60604843E+03 E0= -.60604843E+03  d E =-.208292E+00
 trial-energy change:   -0.208292  1 .order   -0.205213   -0.299345   -0.111081
 step:   1.3979(harm=  1.4684)  dis= 0.05670  next Energy=  -606.077378 (dE=-0.237E+00)
 bond charge predicted
       N       E                     dE             d eps       ncg     rms          rms(c)
DAV:   1    -0.606043882677E+03    0.45465E-02   -0.10565E+01 14080   0.849E+00    0.174E+00
DAV:   2    -0.606095299334E+03   -0.51417E-01   -0.94529E-01 13592   0.209E+00    0.151E+00
DAV:   3    -0.606114212678E+03   -0.18913E-01   -0.49532E-01 15488   0.139E+00    0.161E+00
DAV:   4    -0.606080999349E+03    0.33213E-01   -0.25280E-01 15956   0.921E-01    0.602E-01
DAV:   5    -0.606083472355E+03   -0.24730E-02   -0.32574E-02 17376   0.531E-01    0.442E-01
DAV:   6    -0.606081281643E+03    0.21907E-02   -0.12785E-02 17464   0.292E-01    0.251E-01
DAV:   7    -0.606080822078E+03    0.45956E-03   -0.60966E-03 17104   0.106E-01    0.195E-01
DAV:   8    -0.606081258919E+03   -0.43684E-03   -0.32315E-03 18044   0.709E-02    0.209E-01
DAV:   9    -0.606081525389E+03   -0.26647E-03   -0.36291E-03 17288   0.661E-02    0.146E-01
DAV:  10    -0.606081341379E+03    0.18401E-03   -0.66943E-04 15224   0.689E-02    0.501E-02
DAV:  11    -0.606081245294E+03    0.96085E-04   -0.24267E-04 12552   0.297E-02    0.890E-02
DAV:  12    -0.606081350588E+03   -0.10529E-03   -0.36994E-04  8960   0.150E-02    0.299E-02
DAV:  13    -0.606081338695E+03    0.11893E-04   -0.93868E-06  6760   0.909E-03    0.245E-02
DAV:  14    -0.606081321199E+03    0.17496E-04   -0.17442E-05  6336   0.654E-03    0.428E-02
DAV:  15    -0.606081329640E+03   -0.84409E-05   -0.99870E-05  6344   0.572E-03
   5 F= -.60608133E+03 E0= -.60608133E+03  d E =-.241193E+00
 curvature:  -0.83 expect dE=-0.116E+00 dE for cont linesearch -0.290E-03
 trial: gam= 0.38962 g(F)=  0.131E+00 g(S)=  0.901E-02 ort = 0.114E-01 (trialstep = 0.102E+01)
 search vector abs. value=  0.205E+00
 bond charge predicted
       N       E                     dE             d eps       ncg     rms          rms(c)
DAV:   1    -0.605990581048E+03    0.90740E-01   -0.29252E+01 13156   0.144E+01    0.179E+00
DAV:   2    -0.606172671790E+03   -0.18209E+00   -0.23387E+00 13128   0.317E+00    0.159E+00
DAV:   3    -0.606203228463E+03   -0.30557E-01   -0.52902E-01 18632   0.147E+00    0.166E+00
DAV:   4    -0.606176180767E+03    0.27048E-01   -0.25738E-01 16152   0.963E-01    0.871E-01
DAV:   5    -0.606176123039E+03    0.57728E-04   -0.56056E-02 17076   0.598E-01    0.626E-01
DAV:   6    -0.606172296840E+03    0.38262E-02   -0.18490E-02 16744   0.435E-01    0.231E-01
DAV:   7    -0.606172634582E+03   -0.33774E-03   -0.52137E-03 17884   0.199E-01    0.156E-01
DAV:   8    -0.606172109676E+03    0.52491E-03   -0.13765E-03 18140   0.115E-01    0.883E-02
DAV:   9    -0.606172229740E+03   -0.12006E-03   -0.48196E-04 16324   0.693E-02    0.606E-02
DAV:  10    -0.606172243347E+03   -0.13607E-04   -0.46924E-04 14988   0.642E-02    0.420E-02
DAV:  11    -0.606172226122E+03    0.17226E-04   -0.15563E-04 11724   0.373E-02    0.161E-02
DAV:  12    -0.606172235664E+03   -0.95424E-05   -0.25086E-05  8960   0.186E-02
   6 F= -.60617224E+03 E0= -.60617224E+03  d E =-.909060E-01
 trial-energy change:   -0.090906  1 .order   -0.089838   -0.147105   -0.032571
 step:   1.2888(harm=  1.3080)  dis= 0.04097  next Energy=  -606.176581 (dE=-0.953E-01)
 bond charge predicted
       N       E                     dE             d eps       ncg     rms          rms(c)
DAV:   1    -0.606165014901E+03    0.72112E-02   -0.20613E+00 13152   0.382E+00    0.472E-01
DAV:   2    -0.606176826821E+03   -0.11812E-01   -0.15804E-01 13316   0.831E-01    0.369E-01
DAV:   3    -0.606178100221E+03   -0.12734E-02   -0.14772E-02 18932   0.268E-01    0.280E-01
DAV:   4    -0.606178222603E+03   -0.12238E-03   -0.20194E-02 15504   0.262E-01    0.405E-01
DAV:   5    -0.606177346404E+03    0.87620E-03   -0.21481E-02 15196   0.232E-01    0.180E-01
DAV:   6    -0.606177339972E+03    0.64327E-05   -0.17101E-03 16392   0.114E-01    0.693E-02
DAV:   7    -0.606177302743E+03    0.37228E-04   -0.27889E-04 17716   0.453E-02    0.498E-02
DAV:   8    -0.606177225403E+03    0.77340E-04   -0.73490E-05 13152   0.272E-02    0.416E-02
DAV:   9    -0.606177286181E+03   -0.60777E-04   -0.34547E-05  8832   0.208E-02    0.235E-02
DAV:  10    -0.606177305250E+03   -0.19069E-04   -0.51729E-05  8288   0.246E-02    0.214E-02
DAV:  11    -0.606177282095E+03    0.23154E-04   -0.30722E-05  7648   0.184E-02    0.762E-03
DAV:  12    -0.606177283078E+03   -0.98220E-06   -0.62782E-06  6656   0.740E-03
   7 F= -.60617728E+03 E0= -.60617728E+03  d E =-.959534E-01
 curvature:  -0.93 expect dE=-0.360E-01 dE for cont linesearch -0.275E-04
 trial: gam= 0.29666 g(F)=  0.386E-01 g(S)=  0.338E-03 ort = 0.247E-02 (trialstep = 0.107E+01)
 search vector abs. value=  0.584E-01
 bond charge predicted
       N       E                     dE             d eps       ncg     rms          rms(c)
DAV:   1    -0.606126693267E+03    0.50589E-01   -0.10413E+01 12980   0.938E+00    0.956E-01
DAV:   2    -0.606200322847E+03   -0.73630E-01   -0.88340E-01 12444   0.204E+00    0.789E-01
DAV:   3    -0.606205104104E+03   -0.47813E-02   -0.79618E-02 19288   0.694E-01    0.602E-01
DAV:   4    -0.606205357816E+03   -0.25371E-03   -0.57941E-02 16080   0.526E-01    0.659E-01
DAV:   5    -0.606205416004E+03   -0.58188E-04   -0.62715E-02 16028   0.469E-01    0.409E-01
DAV:   6    -0.606202348802E+03    0.30672E-02   -0.11588E-02 16344   0.300E-01    0.211E-01
DAV:   7    -0.606202386298E+03   -0.37496E-04   -0.30602E-03 16768   0.138E-01    0.110E-01
DAV:   8    -0.606202253897E+03    0.13240E-03   -0.77182E-04 18600   0.627E-02    0.660E-02
DAV:   9    -0.606202305171E+03   -0.51274E-04   -0.12300E-03 15072   0.648E-02    0.887E-02
DAV:  10    -0.606202287202E+03    0.17969E-04   -0.36622E-04 12880   0.463E-02    0.532E-02
DAV:  11    -0.606202245179E+03    0.42023E-04   -0.25227E-04 10368   0.241E-02    0.341E-02
DAV:  12    -0.606202298011E+03   -0.52831E-04   -0.88508E-05  8464   0.198E-02    0.221E-02
DAV:  13    -0.606202283042E+03    0.14969E-04   -0.39875E-05  7096   0.106E-02    0.250E-02
DAV:  14    -0.606202281859E+03    0.11831E-05   -0.44814E-05  6408   0.840E-03
   8 F= -.60620228E+03 E0= -.60620228E+03  d E =-.249988E-01
 trial-energy change:   -0.024999  1 .order   -0.024096   -0.042517   -0.005674
 step:   1.2141(harm=  1.2377)  dis= 0.02042  next Energy=  -606.202659 (dE=-0.254E-01)
 bond charge predicted
       N       E                     dE             d eps       ncg     rms          rms(c)
DAV:   1    -0.606201564355E+03    0.71869E-03   -0.18156E-01 13040   0.124E+00    0.128E-01
DAV:   2    -0.606202736410E+03   -0.11721E-02   -0.16150E-02 12600   0.273E-01    0.121E-01
DAV:   3    -0.606202937087E+03   -0.20068E-03   -0.31540E-03 19184   0.113E-01    0.120E-01
DAV:   4    -0.606202852016E+03    0.85071E-04   -0.80695E-04 14896   0.769E-02    0.781E-02
DAV:   5    -0.606202857418E+03   -0.54020E-05   -0.11116E-03 15052   0.630E-02    0.713E-02
DAV:   6    -0.606202847216E+03    0.10202E-04   -0.34278E-04 13240   0.533E-02    0.482E-02
DAV:   7    -0.606202807955E+03    0.39261E-04   -0.32150E-04 10824   0.345E-02    0.434E-02
DAV:   8    -0.606202780895E+03    0.27059E-04   -0.15762E-04  8256   0.225E-02    0.205E-02
DAV:   9    -0.606202818628E+03   -0.37732E-04   -0.23786E-05  7472   0.112E-02    0.105E-02
DAV:  10    -0.606202814661E+03    0.39668E-05   -0.78401E-06  6536   0.708E-03
   9 F= -.60620281E+03 E0= -.60620281E+03  d E =-.255316E-01
 curvature:  -0.89 expect dE=-0.823E-02 dE for cont linesearch -0.973E-05
 trial: gam= 0.23427 g(F)=  0.913E-02 g(S)=  0.722E-04 ort = 0.798E-03 (trialstep = 0.110E+01)
 search vector abs. value=  0.128E-01
 bond charge predicted
       N       E                     dE             d eps       ncg     rms          rms(c)
DAV:   1    -0.606181947525E+03    0.20871E-01   -0.24620E+00 12792   0.497E+00    0.448E-01
DAV:   2    -0.606207029590E+03   -0.25082E-01   -0.28694E-01 12844   0.114E+00    0.344E-01
DAV:   3    -0.606207255006E+03   -0.22542E-03   -0.24230E-02 18584   0.367E-01    0.334E-01
DAV:   4    -0.606208057107E+03   -0.80210E-03   -0.25770E-02 16184   0.252E-01    0.301E-01
DAV:   5    -0.606207346871E+03    0.71024E-03   -0.55334E-03 16932   0.192E-01    0.169E-01
DAV:   6    -0.606206696753E+03    0.65012E-03   -0.15618E-03 15000   0.119E-01    0.715E-02
DAV:   7    -0.606206862857E+03   -0.16610E-03   -0.42243E-04 16492   0.674E-02    0.507E-02
DAV:   8    -0.606206803642E+03    0.59215E-04   -0.21313E-04 14904   0.479E-02    0.344E-02
DAV:   9    -0.606206792894E+03    0.10748E-04   -0.12743E-04 11504   0.337E-02    0.259E-02
DAV:  10    -0.606206825545E+03   -0.32651E-04   -0.46125E-05  8728   0.241E-02    0.133E-02
DAV:  11    -0.606206805710E+03    0.19835E-04   -0.10221E-05  7776   0.121E-02    0.414E-03
DAV:  12    -0.606206810831E+03   -0.51208E-05   -0.42210E-06  6512   0.626E-03
  10 F= -.60620681E+03 E0= -.60620681E+03  d E =-.399617E-02
 trial-energy change:   -0.003996  1 .order   -0.004773   -0.010340    0.000795
 step:   0.9759(harm=  1.0222)  dis= 0.00701  next Energy=  -606.206857 (dE=-0.404E-02)
 bond charge predicted
       N       E                     dE             d eps       ncg     rms          rms(c)
DAV:   1    -0.606206595927E+03    0.20978E-03   -0.31625E-02 12808   0.564E-01    0.503E-02
DAV:   2    -0.606206900802E+03   -0.30488E-03   -0.36725E-03 12876   0.129E-01    0.371E-02
DAV:   3    -0.606206972981E+03   -0.72179E-04   -0.27632E-04 18028   0.447E-02    0.334E-02
DAV:   4    -0.606206943509E+03    0.29473E-04   -0.91611E-05 11720   0.312E-02    0.239E-02
DAV:   5    -0.606206941952E+03    0.15566E-05   -0.45241E-05  9396   0.218E-02
  11 F= -.60620694E+03 E0= -.60620694E+03  d E =-.412729E-02
 curvature:  -0.45 expect dE=-0.148E-02 dE for cont linesearch -0.414E-05
 trial: gam= 0.34057 g(F)=  0.327E-02 g(S)=  0.159E-05 ort = 0.342E-03 (trialstep = 0.108E+01)
 search vector abs. value=  0.498E-02
 bond charge predicted
       N       E                     dE             d eps       ncg     rms          rms(c)
DAV:   1    -0.606206447078E+03    0.49643E-03   -0.10494E+00 12676   0.232E+00    0.255E-01
DAV:   2    -0.606209683046E+03   -0.32360E-02   -0.48201E-02 13220   0.454E-01    0.315E-01
DAV:   3    -0.606210979420E+03   -0.12964E-02   -0.19613E-02 18684   0.235E-01    0.244E-01
DAV:   4    -0.606210007044E+03    0.97238E-03   -0.26948E-03 15824   0.147E-01    0.199E-01
DAV:   5    -0.606209929962E+03    0.77081E-04   -0.62972E-03 15320   0.107E-01    0.140E-01
DAV:   6    -0.606210121811E+03   -0.19185E-03   -0.49697E-04 15664   0.813E-02    0.784E-02
DAV:   7    -0.606209937573E+03    0.18424E-03   -0.11429E-04 14424   0.328E-02    0.665E-02
DAV:   8    -0.606209940291E+03   -0.27182E-05   -0.39874E-05 10992   0.218E-02
  12 F= -.60620994E+03 E0= -.60620994E+03  d E =-.299834E-02
 trial-energy change:   -0.002998  1 .order   -0.002525   -0.003642   -0.001409
 step:   1.3387(harm=  1.7547)  dis= 0.00521  next Energy=  -606.210119 (dE=-0.318E-02)
 bond charge predicted
       N       E                     dE             d eps       ncg     rms          rms(c)
DAV:   1    -0.606210128283E+03   -0.19071E-03   -0.63276E-02 12684   0.571E-01    0.154E-01
DAV:   2    -0.606216517739E+03   -0.63895E-02   -0.59703E-02 15920   0.437E-01    0.579E-01
DAV:   3    -0.606210446340E+03    0.60714E-02   -0.15393E-02 14560   0.306E-01    0.118E-01
DAV:   4    -0.606210488072E+03   -0.41733E-04   -0.67475E-04 16808   0.690E-02    0.837E-02
DAV:   5    -0.606210315556E+03    0.17252E-03   -0.13565E-04 15064   0.382E-02    0.655E-02
DAV:   6    -0.606210267767E+03    0.47789E-04   -0.11691E-03 10856   0.274E-02    0.144E-01
DAV:   7    -0.606210316220E+03   -0.48453E-04   -0.92243E-04  9220   0.230E-02    0.543E-02
DAV:   8    -0.606210322038E+03   -0.58178E-05   -0.42222E-04  7960   0.218E-02    0.133E-01
DAV:   9    -0.606210321292E+03    0.74599E-06   -0.78844E-04  7488   0.180E-02    0.512E-02
DAV:  10    -0.606210327539E+03   -0.62467E-05   -0.74034E-05  6528   0.726E-03
  13 F= -.60621033E+03 E0= -.60621033E+03  d E =-.338559E-02
 curvature:  -0.81 expect dE=-0.105E-02 dE for cont linesearch -0.168E-03
 ZBRENT: increasing intervall
 opt :   1.8646  next Energy=  -606.210711 (dE=-0.377E-02)
 bond charge predicted
       N       E                     dE             d eps       ncg     rms          rms(c)
DAV:   1    -0.606209807428E+03    0.51386E-03   -0.25063E-01 12664   0.113E+00    0.175E-01
DAV:   2    -0.606215511962E+03   -0.57045E-02   -0.53737E-02 14912   0.406E-01    0.530E-01
DAV:   3    -0.606210765213E+03    0.47467E-02   -0.16415E-02 14040   0.305E-01    0.128E-01
DAV:   4    -0.606210718251E+03    0.46962E-04   -0.21121E-03 17680   0.704E-02    0.125E-01
DAV:   5    -0.606210802886E+03   -0.84635E-04   -0.20969E-03 13532   0.404E-02    0.106E-01
DAV:   6    -0.606210686219E+03    0.11667E-03   -0.51457E-04 12336   0.334E-02    0.105E-01
DAV:   7    -0.606210820131E+03   -0.13391E-03   -0.75100E-04 10812   0.337E-02    0.827E-02
DAV:   8    -0.606210744757E+03    0.75373E-04   -0.40703E-04  7944   0.173E-02    0.965E-02
DAV:   9    -0.606210757181E+03   -0.12423E-04   -0.58174E-04  6776   0.938E-03    0.864E-02
DAV:  10    -0.606210769940E+03   -0.12759E-04   -0.10574E-04  6472   0.656E-03    0.649E-03
DAV:  11    -0.606210744728E+03    0.25212E-04   -0.37715E-05  6276   0.463E-03    0.775E-02
DAV:  12    -0.606210753135E+03   -0.84077E-05   -0.10297E-04  6244   0.429E-03    0.124E-02
DAV:  13    -0.606210741756E+03    0.11379E-04   -0.54804E-05  6180   0.315E-03    0.774E-02
DAV:  14    -0.606210742965E+03   -0.12085E-05   -0.14606E-04  6148   0.337E-03    0.751E-02
DAV:  15    -0.606210732386E+03    0.10579E-04   -0.30021E-04  6128   0.353E-03    0.843E-02
DAV:  16    -0.606210748121E+03   -0.15735E-04   -0.14602E-04  6164   0.322E-03    0.605E-02
DAV:  17    -0.606210731759E+03    0.16362E-04   -0.17997E-04  6056   0.261E-03    0.812E-02
DAV:  18    -0.606210745240E+03   -0.13480E-04   -0.15701E-04  6032   0.278E-03    0.760E-02
DAV:  19    -0.606210729335E+03    0.15905E-04   -0.21767E-04  6000   0.280E-03    0.812E-02
DAV:  20    -0.606210745983E+03   -0.16648E-04   -0.14712E-04  5988   0.284E-03    0.679E-02
DAV:  21    -0.606210728866E+03    0.17117E-04   -0.15503E-04  5992   0.255E-03    0.743E-02
DAV:  22    -0.606210744319E+03   -0.15453E-04   -0.13438E-04  5972   0.220E-03    0.693E-02
DAV:  23    -0.606210728505E+03    0.15814E-04   -0.16186E-04  5972   0.195E-03    0.757E-02
DAV:  24    -0.606210743127E+03   -0.14622E-04   -0.15780E-04  5968   0.201E-03    0.822E-02
DAV:  25    -0.606210727663E+03    0.15464E-04   -0.22642E-04  5956   0.231E-03    0.807E-02
DAV:  26    -0.606210743528E+03   -0.15866E-04   -0.17933E-04  5952   0.245E-03    0.851E-02
DAV:  27    -0.606210727552E+03    0.15977E-04   -0.23424E-04  5952   0.242E-03    0.807E-02
DAV:  28    -0.606210743898E+03   -0.16347E-04   -0.17134E-04  5944   0.232E-03    0.829E-02
DAV:  29    -0.606210727547E+03    0.16351E-04   -0.21675E-04  5936   0.218E-03    0.796E-02
DAV:  30    -0.606210744337E+03   -0.16790E-04   -0.16123E-04  5924   0.206E-03    0.798E-02
DAV:  31    -0.606210727539E+03    0.16798E-04   -0.20119E-04  5912   0.194E-03    0.786E-02
DAV:  32    -0.606210744634E+03   -0.17096E-04   -0.15458E-04  5920   0.185E-03    0.776E-02
DAV:  33    -0.606210727541E+03    0.17093E-04   -0.19198E-04  5920   0.181E-03    0.781E-02
DAV:  34    -0.606210744860E+03   -0.17319E-04   -0.15095E-04  5920   0.178E-03    0.762E-02
DAV:  35    -0.606210727497E+03    0.17364E-04   -0.18628E-04  5916   0.179E-03    0.777E-02
DAV:  36    -0.606210745018E+03   -0.17521E-04   -0.14819E-04  5908   0.180E-03    0.750E-02
DAV:  37    -0.606210727466E+03    0.17552E-04   -0.17990E-04  5908   0.181E-03    0.770E-02
DAV:  38    -0.606210745043E+03   -0.17577E-04   -0.14449E-04  5908   0.180E-03    0.733E-02
DAV:  39    -0.606210727539E+03    0.17504E-04   -0.17089E-04  5900   0.178E-03    0.757E-02
DAV:  40    -0.606210744901E+03   -0.17363E-04   -0.13906E-04  5892   0.174E-03    0.709E-02
DAV:  41    -0.606210727751E+03    0.17150E-04   -0.15909E-04  5896   0.169E-03    0.737E-02
DAV:  42    -0.606210744639E+03   -0.16888E-04   -0.13086E-04  5888   0.165E-03    0.668E-02
DAV:  43    -0.606210728169E+03    0.16469E-04   -0.14151E-04  5896   0.158E-03    0.695E-02
DAV:  44    -0.606210744253E+03   -0.16084E-04   -0.11404E-04  5892   0.151E-03    0.547E-02
DAV:  45    -0.606210729448E+03    0.14806E-04   -0.98298E-05  5884   0.138E-03    0.467E-02
DAV:  46    -0.606210742756E+03   -0.13308E-04   -0.45899E-05  5884   0.109E-03    0.129E-03
DAV:  47    -0.606210736975E+03    0.57809E-05   -0.32213E-06  5884   0.668E-04
  14 F= -.60621074E+03 E0= -.60621074E+03  d E =-.379502E-02
 curvature:  -1.84 expect dE=-0.366E-02 dE for cont linesearch -0.405E-05
 trial: gam= 0.71885 g(F)=  0.195E-02 g(S)=  0.405E-04 ort =-0.105E-03 (trialstep = 0.123E+01)
 search vector abs. value=  0.441E-02
 bond charge predicted
       N       E                     dE             d eps       ncg     rms          rms(c)
DAV:   1    -0.606206215474E+03    0.45273E-02   -0.11902E+00 12520   0.263E+00    0.310E-01
DAV:   2    -0.606215889061E+03   -0.96736E-02   -0.10008E-01 13472   0.630E-01    0.510E-01
DAV:   3    -0.606211195498E+03    0.46936E-02   -0.34773E-02 14784   0.374E-01    0.253E-01
DAV:   4    -0.606211976777E+03   -0.78128E-03   -0.19823E-03 18176   0.136E-01    0.138E-01
DAV:   5    -0.606212244661E+03   -0.26788E-03   -0.32707E-03 17572   0.967E-02    0.189E-01
DAV:   6    -0.606212092940E+03    0.15172E-03   -0.28914E-03 15404   0.700E-02    0.606E-02
DAV:   7    -0.606212227006E+03   -0.13407E-03   -0.13632E-04 14828   0.259E-02    0.307E-02
DAV:   8    -0.606212251296E+03   -0.24290E-04   -0.23444E-05  8432   0.163E-02    0.176E-02
DAV:   9    -0.606212217056E+03    0.34240E-04   -0.28095E-05  7520   0.153E-02    0.240E-02
DAV:  10    -0.606212225915E+03   -0.88588E-05   -0.14181E-04  6760   0.103E-02    0.774E-02
DAV:  11    -0.606212193350E+03    0.32565E-04   -0.12185E-04  6316   0.628E-03    0.233E-02
DAV:  12    -0.606212221401E+03   -0.28051E-04   -0.10581E-04  6344   0.631E-03    0.758E-02
DAV:  13    -0.606212214114E+03    0.72877E-05   -0.91684E-05  6172   0.489E-03
  15 F= -.60621221E+03 E0= -.60621221E+03  d E =-.147714E-02
 trial-energy change:   -0.001477  1 .order   -0.000801   -0.002361    0.000759
 step:   1.0942(harm=  0.9334)  dis= 0.00397  next Energy=  -606.212256 (dE=-0.152E-02)
 bond charge predicted
       N       E                     dE             d eps       ncg     rms          rms(c)
DAV:   1    -0.606212181576E+03    0.39825E-04   -0.15537E-02 12636   0.297E-01    0.142E-01
DAV:   2    -0.606213610788E+03   -0.14292E-02   -0.49031E-02 16752   0.387E-01    0.500E-01
DAV:   3    -0.606211592188E+03    0.20186E-02   -0.82509E-03 15264   0.295E-01    0.115E-01
DAV:   4    -0.606212074255E+03   -0.48207E-03   -0.63944E-04 16840   0.753E-02    0.712E-02
DAV:   5    -0.606212043738E+03    0.30517E-04   -0.14597E-04 13816   0.318E-02    0.570E-02
DAV:   6    -0.606212137960E+03   -0.94222E-04   -0.24736E-05  8592   0.134E-02    0.389E-02
DAV:   7    -0.606212253151E+03   -0.11519E-03   -0.11103E-03  8328   0.191E-02    0.158E-01
DAV:   8    -0.606212221936E+03    0.31215E-04   -0.16634E-04  7408   0.126E-02    0.707E-02
DAV:   9    -0.606212190351E+03    0.31585E-04   -0.14185E-05  6656   0.619E-03    0.608E-02
DAV:  10    -0.606212158921E+03    0.31430E-04   -0.11083E-04  6520   0.572E-03    0.319E-02
DAV:  11    -0.606212191101E+03   -0.32180E-04   -0.17165E-04  6376   0.485E-03    0.696E-02
DAV:  12    -0.606212162339E+03    0.28762E-04   -0.15916E-04  6336   0.479E-03    0.328E-02
DAV:  13    -0.606212165124E+03   -0.27848E-05   -0.54254E-06  6328   0.264E-03
  16 F= -.60621217E+03 E0= -.60621217E+03  d E =-.142815E-02
 curvature:  -0.77 expect dE=-0.432E-03 dE for cont linesearch -0.205E-04
 ZBRENT: interpolating
 opt :   0.9276  next Energy=  -606.212194 (dE=-0.146E-02)
 bond charge predicted
       N       E                     dE             d eps       ncg     rms          rms(c)
DAV:   1    -0.606212059248E+03    0.10309E-03   -0.21930E-02 12568   0.354E-01    0.143E-01
DAV:   2    -0.606213884175E+03   -0.18249E-02   -0.52047E-02 16560   0.394E-01    0.513E-01
DAV:   3    -0.606211542422E+03    0.23418E-02   -0.88054E-03 15200   0.299E-01    0.121E-01
DAV:   4    -0.606212033526E+03   -0.49110E-03   -0.66180E-04 16976   0.782E-02    0.816E-02
DAV:   5    -0.606211975413E+03    0.58113E-04   -0.24002E-04 14056   0.330E-02    0.651E-02
DAV:   6    -0.606212112760E+03   -0.13735E-03   -0.49360E-05  8840   0.150E-02    0.452E-02
DAV:   7    -0.606212201814E+03   -0.89053E-04   -0.12134E-03  8092   0.193E-02    0.150E-01
DAV:   8    -0.606212168741E+03    0.33072E-04   -0.13347E-04  7504   0.140E-02    0.605E-02
DAV:   9    -0.606212128485E+03    0.40256E-04   -0.89080E-05  6756   0.749E-03    0.417E-02
DAV:  10    -0.606212140007E+03   -0.11522E-04   -0.22655E-04  6680   0.676E-03    0.618E-02
DAV:  11    -0.606212095385E+03    0.44622E-04   -0.21887E-04  6364   0.662E-03    0.455E-02
DAV:  12    -0.606212121147E+03   -0.25762E-04   -0.67514E-05  6328   0.392E-03    0.537E-02
DAV:  13    -0.606212098452E+03    0.22695E-04   -0.18748E-04  6240   0.353E-03    0.451E-02
DAV:  14    -0.606212116774E+03   -0.18322E-04   -0.37253E-05  6212   0.292E-03    0.480E-02
DAV:  15    -0.606212104614E+03    0.12160E-04   -0.13574E-04  6160   0.241E-03    0.441E-02
DAV:  16    -0.606212114566E+03   -0.99520E-05   -0.23097E-05  6100   0.217E-03
  17 F= -.60621211E+03 E0= -.60621211E+03  d E =-.137759E-02
 curvature:  -1.07 expect dE=-0.454E-03 dE for cont linesearch -0.267E-05
 ZBRENT: interpolating
 opt :   0.8583  next Energy=  -606.212118 (dE=-0.138E-02)
 bond charge predicted
       N       E                     dE             d eps       ncg     rms          rms(c)
DAV:   1    -0.606212074590E+03    0.30024E-04   -0.37538E-03 12500   0.148E-01    0.404E-02
DAV:   2    -0.606211206712E+03    0.86788E-03   -0.57533E-03 15760   0.108E-01    0.165E-01
DAV:   3    -0.606211975960E+03   -0.76925E-03   -0.45858E-04 14352   0.973E-02    0.658E-02
DAV:   4    -0.606212084617E+03   -0.10866E-03   -0.15686E-04 12216   0.210E-02    0.502E-02
DAV:   5    -0.606212040386E+03    0.44231E-04   -0.31567E-04  7804   0.122E-02    0.528E-02
DAV:   6    -0.606212076277E+03   -0.35891E-04   -0.49594E-06  6616   0.722E-03    0.410E-02
DAV:   7    -0.606212099521E+03   -0.23243E-04   -0.24441E-04  6784   0.709E-03    0.761E-02
DAV:   8    -0.606212092884E+03    0.66366E-05   -0.81293E-05  6576   0.562E-03
  18 F= -.60621209E+03 E0= -.60621209E+03  d E =-.135591E-02
 curvature:  -1.54 expect dE=-0.597E-03 dE for cont linesearch -0.899E-05
 ZBRENT: interpolating
 opt :   0.9002  next Energy=  -606.212116 (dE=-0.138E-02)
 bond charge predicted
       N       E                     dE             d eps       ncg     rms          rms(c)
DAV:   1    -0.606212103928E+03   -0.44071E-05   -0.14531E-03 12424   0.896E-02    0.530E-02
DAV:   2    -0.606211080722E+03    0.10232E-02   -0.99233E-03 16272   0.151E-01    0.221E-01
DAV:   3    -0.606211879886E+03   -0.79916E-03   -0.10526E-03 14996   0.130E-01    0.774E-02
DAV:   4    -0.606212064281E+03   -0.18439E-03   -0.93893E-05 12696   0.267E-02    0.503E-02
DAV:   5    -0.606212070919E+03   -0.66380E-05   -0.15539E-05  8036   0.103E-02
  19 F= -.60621207E+03 E0= -.60621207E+03  d E =-.133394E-02
 curvature:  -0.25 expect dE=-0.106E-03 dE for cont linesearch -0.654E-06
 ZBRENT: interpolating
 opt :   0.9142  next Energy=  -606.212115 (dE=-0.138E-02)
 bond charge predicted
       N       E                     dE             d eps       ncg     rms          rms(c)
DAV:   1    -0.606212105939E+03   -0.41658E-04   -0.19021E-04 11944   0.307E-02    0.465E-02
DAV:   2    -0.606211097098E+03    0.10088E-02   -0.81597E-03 15944   0.132E-01    0.199E-01
DAV:   3    -0.606211913899E+03   -0.81680E-03   -0.74461E-04 14728   0.114E-01    0.730E-02
DAV:   4    -0.606212052917E+03   -0.13902E-03   -0.55347E-05 11224   0.217E-02    0.494E-02
DAV:   5    -0.606212081426E+03   -0.28509E-04   -0.87193E-06  7216   0.740E-03    0.468E-02
DAV:   6    -0.606212103426E+03   -0.22000E-04   -0.18882E-05  6760   0.556E-03    0.297E-02
DAV:   7    -0.606212094985E+03    0.84404E-05   -0.10939E-04  6532   0.428E-03    0.460E-02
DAV:   8    -0.606212103980E+03   -0.89942E-05   -0.25147E-05  6376   0.360E-03
  20 F= -.60621210E+03 E0= -.60621210E+03  d E =-.136700E-02
 curvature:  -0.26 expect dE=-0.110E-03 dE for cont linesearch -0.300E-06
 trial: gam= 0.16217 g(F)=  0.410E-03 g(S)=  0.518E-05 ort =-0.707E-04 (trialstep = 0.117E+01)
 search vector abs. value=  0.508E-03
 bond charge predicted
       N       E                     dE             d eps       ncg     rms          rms(c)
DAV:   1    -0.606211464326E+03    0.63066E-03   -0.14476E-01 12628   0.101E+00    0.167E-01
DAV:   2    -0.606214029819E+03   -0.25655E-02   -0.60522E-02 13664   0.463E-01    0.547E-01
DAV:   3    -0.606211754336E+03    0.22755E-02   -0.11287E-02 13320   0.337E-01    0.136E-01
DAV:   4    -0.606212410757E+03   -0.65642E-03   -0.14467E-03 17640   0.101E-01    0.682E-02
DAV:   5    -0.606212150885E+03    0.25987E-03   -0.99037E-04 14056   0.512E-02    0.847E-02
DAV:   6    -0.606212322167E+03   -0.17128E-03   -0.78638E-04 12464   0.277E-02    0.129E-01
DAV:   7    -0.606212245394E+03    0.76773E-04   -0.13149E-03  9128   0.259E-02    0.722E-02
DAV:   8    -0.606212284594E+03   -0.39200E-04   -0.19801E-04  7896   0.226E-02    0.450E-02
DAV:   9    -0.606212303174E+03   -0.18580E-04   -0.56584E-05  7368   0.151E-02    0.480E-02
DAV:  10    -0.606212292420E+03    0.10753E-04   -0.10884E-04  6664   0.904E-03    0.414E-02
DAV:  11    -0.606212300908E+03   -0.84874E-05   -0.54300E-05  6312   0.496E-03
  21 F= -.60621230E+03 E0= -.60621230E+03  d E =-.196928E-03
 trial-energy change:   -0.000197  1 .order   -0.000183   -0.000472    0.000106
 step:   0.9551(harm=  0.9551)  dis= 0.00111  next Energy=  -606.212297 (dE=-0.193E-03)
 bond charge predicted
       N       E                     dE             d eps       ncg     rms          rms(c)
DAV:   1    -0.606212274658E+03    0.17762E-04   -0.48629E-03 12652   0.186E-01    0.534E-02
DAV:   2    -0.606213987726E+03   -0.17131E-02   -0.15849E-02 15080   0.151E-01    0.312E-01
DAV:   3    -0.606212388335E+03    0.15994E-02   -0.27641E-03 14288   0.126E-01    0.133E-01
DAV:   4    -0.606212294512E+03    0.93823E-04   -0.59467E-04 13640   0.224E-02    0.547E-02
DAV:   5    -0.606212322628E+03   -0.28116E-04   -0.24725E-04  7824   0.117E-02    0.584E-02
DAV:   6    -0.606212304987E+03    0.17641E-04   -0.32238E-05  6864   0.781E-03    0.902E-03
DAV:   7    -0.606212295132E+03    0.98551E-05   -0.25727E-05  6788   0.897E-03
  22 F= -.60621230E+03 E0= -.60621230E+03  d E =-.191152E-03
 curvature:  -0.60 expect dE=-0.736E-04 dE for cont linesearch -0.105E-05
 ZBRENT: interpolating
 opt :   1.0081  next Energy=  -606.212296 (dE=-0.192E-03)
 bond charge predicted
       N       E                     dE             d eps       ncg     rms          rms(c)
DAV:   1    -0.606212288549E+03    0.16438E-04   -0.34963E-04 12392   0.478E-02    0.506E-02
DAV:   2    -0.606214040243E+03   -0.17517E-02   -0.16085E-02 16600   0.145E-01    0.312E-01
DAV:   3    -0.606212402553E+03    0.16377E-02   -0.26745E-03 15416   0.120E-01    0.134E-01
DAV:   4    -0.606212316996E+03    0.85557E-04   -0.30164E-04 11672   0.174E-02    0.438E-02
DAV:   5    -0.606212310215E+03    0.67812E-05   -0.28239E-04  7328   0.842E-03    0.117E-01
DAV:   6    -0.606212316450E+03   -0.62352E-05   -0.17540E-04  6792   0.623E-03    0.220E-02
DAV:   7    -0.606212306191E+03    0.10259E-04   -0.16732E-05  6684   0.467E-03    0.440E-02
DAV:   8    -0.606212307441E+03   -0.12500E-05   -0.59146E-06  6416   0.336E-03
  23 F= -.60621231E+03 E0= -.60621231E+03  d E =-.203461E-03
 curvature:  -0.45 expect dE=-0.619E-04 dE for cont linesearch -0.812E-06
 ZBRENT: bisectioning
 opt :   1.0889  next Energy=  -606.212310 (dE=-0.206E-03)
 bond charge predicted
       N       E                     dE             d eps       ncg     rms          rms(c)
DAV:   1    -0.606212293635E+03    0.12556E-04   -0.69589E-04 12500   0.700E-02    0.424E-02
DAV:   2    -0.606211419655E+03    0.87398E-03   -0.76841E-03 16216   0.120E-01    0.191E-01
DAV:   3    -0.606212170340E+03   -0.75069E-03   -0.57191E-04 14588   0.106E-01    0.802E-02
DAV:   4    -0.606212308687E+03   -0.13835E-03   -0.19632E-04 11664   0.221E-02    0.375E-02
DAV:   5    -0.606212278548E+03    0.30139E-04   -0.19298E-04  7708   0.107E-02    0.607E-02
DAV:   6    -0.606212297690E+03   -0.19142E-04   -0.25132E-05  6656   0.603E-03    0.139E-02
DAV:   7    -0.606212279191E+03    0.18499E-04   -0.89107E-05  6432   0.480E-03    0.589E-02
DAV:   8    -0.606212284749E+03   -0.55583E-05   -0.29960E-05  6376   0.321E-03
  24 F= -.60621228E+03 E0= -.60621228E+03  d E =-.180770E-03
 curvature:  -1.38 expect dE=-0.218E-03 dE for cont linesearch -0.223E-06
 trial: gam= 0.33921 g(F)=  0.157E-03 g(S)=  0.646E-06 ort = 0.907E-05 (trialstep = 0.115E+01)
 search vector abs. value=  0.223E-03
 bond charge predicted
       N       E                     dE             d eps       ncg     rms          rms(c)
DAV:   1    -0.606212022229E+03    0.25696E-03   -0.61887E-02 13112   0.734E-01    0.132E-01
DAV:   2    -0.606213614171E+03   -0.15919E-02   -0.47904E-02 14656   0.379E-01    0.498E-01
DAV:   3    -0.606212074558E+03    0.15396E-02   -0.10649E-02 13668   0.293E-01    0.126E-01
DAV:   4    -0.606212480464E+03   -0.40591E-03   -0.12380E-03 16648   0.753E-02    0.964E-02
DAV:   5    -0.606212367936E+03    0.11253E-03   -0.13733E-03 13080   0.332E-02    0.918E-02
DAV:   6    -0.606212436251E+03   -0.68314E-04   -0.22134E-04  8880   0.169E-02    0.354E-02
DAV:   7    -0.606212457237E+03   -0.20986E-04   -0.22544E-05  7648   0.137E-02    0.192E-02
DAV:   8    -0.606212431525E+03    0.25712E-04   -0.20894E-05  7328   0.141E-02    0.270E-02
DAV:   9    -0.606212442533E+03   -0.11009E-04   -0.93125E-06  6768   0.107E-02    0.239E-02
DAV:  10    -0.606212442371E+03    0.16205E-06   -0.38119E-06  6384   0.589E-03
  25 F= -.60621244E+03 E0= -.60621244E+03  d E =-.157622E-03
 trial-energy change:   -0.000158  1 .order   -0.000134   -0.000186   -0.000082
 step:   2.0670(harm=  2.0670)  dis= 0.00159  next Energy=  -606.212451 (dE=-0.167E-03)
 reached required accuracy - stopping structural energy minimisation
 writing wavefunctions
