<?xml version="1.0" encoding="ISO-8859-1"?>
<modeling>
 <generator>
  <i name="program" type="string">vasp </i>
  <i name="version" type="string">5.4.4.18Apr17-6-g9f103f2a35  </i>
  <i name="subversion" type="string">(build Oct 23 2017 21:22:35) complex            parallel </i>
  <i name="platform" type="string">LinuxIFC </i>
  <i name="date" type="string">2017 12 27 </i>
  <i name="time" type="string">08:05:18 </i>
 </generator>
 <incar>
  <i type="string" name="PREC">accurate</i>
  <i type="int" name="IBRION">    -1</i>
  <i name="EDIFF">      0.00001000</i>
  <i name="EDIFFG">     -0.01000000</i>
  <i type="int" name="ISIF">     2</i>
  <i name="ENCUT">    500.00000000</i>
  <i type="int" name="ISMEAR">    -5</i>
  <v type="int" name="KPOINT_BSE">    -1     0     0     0</v>
 </incar>
 <structure name="primitive_cell" >
  <crystal>
   <varray name="basis" >
    <v>       0.00000000       0.00000000      -4.02333223 </v>
    <v>       0.00000000       4.02333223       0.00000000 </v>
    <v>      12.06132168       0.00000000       0.00000000 </v>
   </varray>
   <i name="volume">    195.23905300 </i>
   <varray name="rec_basis" >
    <v>       0.00000000       0.00000000      -0.24855019 </v>
    <v>       0.00000000       0.24855019       0.00000000 </v>
    <v>       0.08290965       0.00000000       0.00000000 </v>
   </varray>
  </crystal>
  <varray name="positions" >
   <v>      -0.50000000      -0.50000000       0.16423027 </v>
   <v>      -0.50000000      -0.50000000      -0.00176303 </v>
   <v>      -0.50000000       0.00000000       0.16683099 </v>
   <v>       0.00000000      -0.50000000       0.16683099 </v>
   <v>      -0.50000000      -0.50000000       0.33333333 </v>
   <v>       0.00000000       0.00000000       0.33333333 </v>
   <v>       0.00000000       0.00000000      -0.01302684 </v>
   <v>      -0.50000000      -0.50000000      -0.16666667 </v>
   <v>      -0.50000000      -0.50000000      -0.49756361 </v>
   <v>      -0.50000000       0.00000000      -0.16666667 </v>
   <v>       0.00000000      -0.50000000      -0.16666667 </v>
   <v>      -0.50000000       0.00000000       0.49983568 </v>
   <v>       0.00000000      -0.50000000       0.49983568 </v>
   <v>      -0.50000000      -0.50000000      -0.33157031 </v>
   <v>       0.00000000       0.00000000      -0.32030649 </v>
  </varray>
 </structure>
 <varray name="primitive_index" >
  <v type="int" >        1 </v>
  <v type="int" >        9 </v>
  <v type="int" >        4 </v>
  <v type="int" >        5 </v>
  <v type="int" >        3 </v>
  <v type="int" >       12 </v>
  <v type="int" >       14 </v>
  <v type="int" >       15 </v>
  <v type="int" >        2 </v>
  <v type="int" >       10 </v>
  <v type="int" >       11 </v>
  <v type="int" >        7 </v>
  <v type="int" >        8 </v>
  <v type="int" >        6 </v>
  <v type="int" >       13 </v>
 </varray>
 <kpoints>
  <generation param="Gamma">
   <v type="int" name="divisions">       7        7        3 </v>
   <v name="usershift">      0.00000000       0.00000000       0.00000000 </v>
   <v name="genvec1">      0.14285714       0.00000000       0.00000000 </v>
   <v name="genvec2">      0.00000000       0.14285714       0.00000000 </v>
   <v name="genvec3">      0.00000000       0.00000000       0.33333333 </v>
   <v name="shift">      0.00000000       0.00000000       0.00000000 </v>
  </generation>
  <varray name="kpointlist" >
   <v>       0.00000000       0.00000000       0.00000000 </v>
   <v>       0.14285714       0.00000000       0.00000000 </v>
   <v>       0.28571429       0.00000000       0.00000000 </v>
   <v>       0.42857143       0.00000000       0.00000000 </v>
   <v>       0.14285714       0.14285714       0.00000000 </v>
   <v>       0.28571429       0.14285714       0.00000000 </v>
   <v>       0.42857143       0.14285714       0.00000000 </v>
   <v>       0.28571429       0.28571429       0.00000000 </v>
   <v>       0.42857143       0.28571429       0.00000000 </v>
   <v>       0.42857143       0.42857143       0.00000000 </v>
   <v>       0.00000000       0.00000000       0.33333333 </v>
   <v>       0.14285714       0.00000000       0.33333333 </v>
   <v>       0.28571429       0.00000000       0.33333333 </v>
   <v>       0.42857143       0.00000000       0.33333333 </v>
   <v>       0.14285714       0.14285714       0.33333333 </v>
   <v>       0.28571429       0.14285714       0.33333333 </v>
   <v>       0.42857143       0.14285714       0.33333333 </v>
   <v>       0.28571429       0.28571429       0.33333333 </v>
   <v>       0.42857143       0.28571429       0.33333333 </v>
   <v>       0.42857143       0.42857143       0.33333333 </v>
  </varray>
  <varray name="weights" >
   <v>       0.00680272 </v>
   <v>       0.02721088 </v>
   <v>       0.02721088 </v>
   <v>       0.02721088 </v>
   <v>       0.02721088 </v>
   <v>       0.05442177 </v>
   <v>       0.05442177 </v>
   <v>       0.02721088 </v>
   <v>       0.05442177 </v>
   <v>       0.02721088 </v>
   <v>       0.01360544 </v>
   <v>       0.05442177 </v>
   <v>       0.05442177 </v>
   <v>       0.05442177 </v>
   <v>       0.05442177 </v>
   <v>       0.10884354 </v>
   <v>       0.10884354 </v>
   <v>       0.05442177 </v>
   <v>       0.10884354 </v>
   <v>       0.05442177 </v>
  </varray>
  <varray name="tetrahedronlist"  type="int" >
   <v type="int" >        4        1        2        2       12 </v>
   <v type="int" >        4        2        2        5       12 </v>
   <v type="int" >        4        2        5       12       15 </v>
   <v type="int" >        4        1        2       11       12 </v>
   <v type="int" >        4        2       11       12       12 </v>
   <v type="int" >        4        2       12       12       15 </v>
   <v type="int" >        4        2        3        5       13 </v>
   <v type="int" >        4        3        5        6       13 </v>
   <v type="int" >        4        5        6       13       16 </v>
   <v type="int" >        4        2        5       12       13 </v>
   <v type="int" >        4        5       12       13       15 </v>
   <v type="int" >        4        5       13       15       16 </v>
   <v type="int" >        4        3        4        6       14 </v>
   <v type="int" >        4        4        6        7       14 </v>
   <v type="int" >        4        6        7       14       17 </v>
   <v type="int" >        4        3        6       13       14 </v>
   <v type="int" >        4        6       13       14       16 </v>
   <v type="int" >        4        6       14       16       17 </v>
   <v type="int" >        4        4        4        7       14 </v>
   <v type="int" >        4        4        7        7       14 </v>
   <v type="int" >        4        7        7       14       17 </v>
   <v type="int" >        4        4        7       14       14 </v>
   <v type="int" >        4        7       14       14       17 </v>
   <v type="int" >        4        7       14       17       17 </v>
   <v type="int" >        4        3        4        7       13 </v>
   <v type="int" >        4        3        6        7       13 </v>
   <v type="int" >        4        6        7       13       16 </v>
   <v type="int" >        4        4        7       13       14 </v>
   <v type="int" >        4        7       13       14       17 </v>
   <v type="int" >        4        7       13       16       17 </v>
   <v type="int" >        4        2        3        6       12 </v>
   <v type="int" >        4        2        5        6       12 </v>
   <v type="int" >        4        5        6       12       15 </v>
   <v type="int" >        4        3        6       12       13 </v>
   <v type="int" >        4        6       12       13       16 </v>
   <v type="int" >        4        6       12       15       16 </v>
   <v type="int" >        4        1        2        5       11 </v>
   <v type="int" >        4        2        5       11       12 </v>
   <v type="int" >        4        5       11       12       15 </v>
   <v type="int" >        4        2        3        5       15 </v>
   <v type="int" >        4        3        5        6       15 </v>
   <v type="int" >        4        3        6       15       16 </v>
   <v type="int" >        4        2        3       12       15 </v>
   <v type="int" >        4        3       12       13       15 </v>
   <v type="int" >        4        3       13       15       16 </v>
   <v type="int" >        4        5        6        6       16 </v>
   <v type="int" >        4        6        6        8       16 </v>
   <v type="int" >        4        6        8       16       18 </v>
   <v type="int" >        4        5        6       15       16 </v>
   <v type="int" >        4        6       15       16       16 </v>
   <v type="int" >        4        6       16       16       18 </v>
   <v type="int" >        4        6        7        8       17 </v>
   <v type="int" >        4        7        8        9       17 </v>
   <v type="int" >        4        8        9       17       19 </v>
   <v type="int" >        4        6        8       16       17 </v>
   <v type="int" >        4        8       16       17       18 </v>
   <v type="int" >        4        8       17       18       19 </v>
   <v type="int" >        4        7        7        9       17 </v>
   <v type="int" >        4        7        9        9       17 </v>
   <v type="int" >        4        9        9       17       19 </v>
   <v type="int" >        4        7        9       17       17 </v>
   <v type="int" >        4        9       17       17       19 </v>
   <v type="int" >        4        9       17       19       19 </v>
   <v type="int" >        4        6        7        9       16 </v>
   <v type="int" >        4        6        8        9       16 </v>
   <v type="int" >        4        8        9       16       18 </v>
   <v type="int" >        4        7        9       16       17 </v>
   <v type="int" >        4        9       16       17       19 </v>
   <v type="int" >        4        9       16       18       19 </v>
   <v type="int" >        4        5        6        8       15 </v>
   <v type="int" >        4        6        8       15       16 </v>
   <v type="int" >        4        8       15       16       18 </v>
   <v type="int" >        4        3        4        6       16 </v>
   <v type="int" >        4        4        6        7       16 </v>
   <v type="int" >        4        4        7       16       17 </v>
   <v type="int" >        4        3        4       13       16 </v>
   <v type="int" >        4        4       13       14       16 </v>
   <v type="int" >        4        4       14       16       17 </v>
   <v type="int" >        4        6        7        8       18 </v>
   <v type="int" >        4        7        8        9       18 </v>
   <v type="int" >        4        7        9       18       19 </v>
   <v type="int" >        4        6        7       16       18 </v>
   <v type="int" >        4        7       16       17       18 </v>
   <v type="int" >        4        7       17       18       19 </v>
   <v type="int" >        4        8        9        9       19 </v>
   <v type="int" >        8        9        9       10       19 </v>
   <v type="int" >        4        9       10       19       20 </v>
   <v type="int" >        4        8        9       18       19 </v>
   <v type="int" >        4        9       18       19       19 </v>
   <v type="int" >        8        9       19       19       20 </v>
   <v type="int" >        4        9       10       10       19 </v>
   <v type="int" >        4       10       10       19       20 </v>
   <v type="int" >        4        9       10       19       19 </v>
   <v type="int" >        4       10       19       19       20 </v>
   <v type="int" >        4       10       19       20       20 </v>
   <v type="int" >        4        8        9       10       18 </v>
   <v type="int" >        4        9       10       18       19 </v>
   <v type="int" >        4       10       18       19       20 </v>
   <v type="int" >        4        4        4        7       17 </v>
   <v type="int" >        4        4        7        7       17 </v>
   <v type="int" >        4        4        7       17       17 </v>
   <v type="int" >        4        4        4       14       17 </v>
   <v type="int" >        4        4       14       14       17 </v>
   <v type="int" >        4        4       14       17       17 </v>
   <v type="int" >        4        7        7        9       19 </v>
   <v type="int" >        4        7        9        9       19 </v>
   <v type="int" >        4        7        9       19       19 </v>
   <v type="int" >        4        7        7       17       19 </v>
   <v type="int" >        4        7       17       17       19 </v>
   <v type="int" >        4        7       17       19       19 </v>
   <v type="int" >        4        9        9       10       20 </v>
   <v type="int" >        4        9       10       10       20 </v>
   <v type="int" >        4        9       10       20       20 </v>
   <v type="int" >        4        9        9       19       20 </v>
   <v type="int" >        4        9       19       20       20 </v>
   <v type="int" >        4       10       10       10       20 </v>
   <v type="int" >        4       10       10       20       20 </v>
   <v type="int" >        4       10       20       20       20 </v>
   <v type="int" >        4        3        4        7       17 </v>
   <v type="int" >        4        3        6        7       17 </v>
   <v type="int" >        4        3        6       16       17 </v>
   <v type="int" >        4        3        4       14       17 </v>
   <v type="int" >        4        3       13       14       17 </v>
   <v type="int" >        4        3       13       16       17 </v>
   <v type="int" >        4        6        7        9       19 </v>
   <v type="int" >        4        6        8        9       19 </v>
   <v type="int" >        4        6        8       18       19 </v>
   <v type="int" >        4        6        7       17       19 </v>
   <v type="int" >        4        6       16       17       19 </v>
   <v type="int" >        4        6       16       18       19 </v>
   <v type="int" >        4        8        9       10       20 </v>
   <v type="int" >        4        8        9       19       20 </v>
   <v type="int" >        4        8       18       19       20 </v>
   <v type="int" >        4        2        3        6       16 </v>
   <v type="int" >        4        2        5        6       16 </v>
   <v type="int" >        4        2        5       15       16 </v>
   <v type="int" >        4        2        3       13       16 </v>
   <v type="int" >        4        2       12       13       16 </v>
   <v type="int" >        4        2       12       15       16 </v>
   <v type="int" >        4        5        6        8       18 </v>
   <v type="int" >        4        5        6       16       18 </v>
   <v type="int" >        4        5       15       16       18 </v>
   <v type="int" >        4        1        2        5       15 </v>
   <v type="int" >        4        1        2       12       15 </v>
   <v type="int" >        4        1       11       12       15 </v>
   <v type="int" >        4       11       12       12       12 </v>
   <v type="int" >        4       12       12       12       15 </v>
   <v type="int" >        2       12       12       15       15 </v>
   <v type="int" >        2       11       11       12       12 </v>
   <v type="int" >        4       12       13       13       15 </v>
   <v type="int" >        4       13       13       15       16 </v>
   <v type="int" >        4       13       15       16       16 </v>
   <v type="int" >        4       12       12       13       15 </v>
   <v type="int" >        4       12       13       15       15 </v>
   <v type="int" >        4       13       15       15       16 </v>
   <v type="int" >        4       13       14       14       16 </v>
   <v type="int" >        4       14       14       16       17 </v>
   <v type="int" >        4       14       16       17       17 </v>
   <v type="int" >        4       13       13       14       16 </v>
   <v type="int" >        4       13       14       16       16 </v>
   <v type="int" >        4       14       16       16       17 </v>
   <v type="int" >        8       14       14       14       17 </v>
   <v type="int" >        8       14       14       17       17 </v>
   <v type="int" >        8       14       17       17       17 </v>
   <v type="int" >        4       13       13       14       17 </v>
   <v type="int" >        4       13       13       16       17 </v>
   <v type="int" >        4       13       16       16       17 </v>
   <v type="int" >        4       13       14       14       17 </v>
   <v type="int" >        4       13       14       17       17 </v>
   <v type="int" >        4       13       16       17       17 </v>
   <v type="int" >        4       12       12       13       16 </v>
   <v type="int" >        4       12       12       15       16 </v>
   <v type="int" >        4       12       15       15       16 </v>
   <v type="int" >        4       12       13       13       16 </v>
   <v type="int" >        4       12       13       16       16 </v>
   <v type="int" >        4       12       15       16       16 </v>
   <v type="int" >        4       11       11       12       15 </v>
   <v type="int" >        4       11       12       12       15 </v>
   <v type="int" >        4       11       12       15       15 </v>
   <v type="int" >        4       15       16       16       16 </v>
   <v type="int" >        4       16       16       16       18 </v>
   <v type="int" >        2       16       16       18       18 </v>
   <v type="int" >        2       15       15       16       16 </v>
   <v type="int" >        4       16       17       17       18 </v>
   <v type="int" >        4       17       17       18       19 </v>
   <v type="int" >        4       17       18       19       19 </v>
   <v type="int" >        4       16       16       17       18 </v>
   <v type="int" >        4       16       17       18       18 </v>
   <v type="int" >        4       17       18       18       19 </v>
   <v type="int" >        8       17       17       17       19 </v>
   <v type="int" >        8       17       17       19       19 </v>
   <v type="int" >        8       17       19       19       19 </v>
   <v type="int" >        4       16       16       17       19 </v>
   <v type="int" >        4       16       16       18       19 </v>
   <v type="int" >        4       16       18       18       19 </v>
   <v type="int" >        4       16       17       17       19 </v>
   <v type="int" >        4       16       17       19       19 </v>
   <v type="int" >        4       16       18       19       19 </v>
   <v type="int" >        4       15       15       16       18 </v>
   <v type="int" >        4       15       16       16       18 </v>
   <v type="int" >        4       15       16       18       18 </v>
   <v type="int" >        4       18       19       19       19 </v>
   <v type="int" >       12       19       19       19       20 </v>
   <v type="int" >       10       19       19       20       20 </v>
   <v type="int" >        2       18       18       19       19 </v>
   <v type="int" >        8       19       20       20       20 </v>
   <v type="int" >        4       18       18       19       20 </v>
   <v type="int" >        4       18       19       19       20 </v>
   <v type="int" >        4       18       19       20       20 </v>
   <v type="int" >        6       20       20       20       20 </v>
  </varray>
  <i name="volumeweight">      0.00113379 </i>
 </kpoints>
 <parameters>
  <separator name="general" >
   <i type="string" name="SYSTEM">unknown system</i>
   <i type="logical" name="LCOMPAT"> F  </i>
  </separator>
  <separator name="electronic" >
   <i type="string" name="PREC">accura</i>
   <i name="ENMAX">    500.00000000</i>
   <i name="ENAUG">    605.39200000</i>
   <i name="EDIFF">      0.00001000</i>
   <i type="int" name="IALGO">    38</i>
   <i type="int" name="IWAVPR">    10</i>
   <i type="int" name="NBANDS">    76</i>
   <i name="NELECT">    122.00000000</i>
   <i type="int" name="TURBO">     0</i>
   <i type="int" name="IRESTART">     0</i>
   <i type="int" name="NREBOOT">     0</i>
   <i type="int" name="NMIN">     0</i>
   <i name="EREF">      0.00000000</i>
   <separator name="electronic smearing" >
    <i type="int" name="ISMEAR">    -5</i>
    <i name="SIGMA">      0.20000000</i>
    <i name="KSPACING">      0.50000000</i>
    <i type="logical" name="KGAMMA"> T  </i>
   </separator>
   <separator name="electronic projectors" >
    <i type="logical" name="LREAL"> F  </i>
    <v name="ROPT">      0.00000000      0.00000000      0.00000000      0.00000000</v>
    <i type="int" name="LMAXPAW">  -100</i>
    <i type="int" name="LMAXMIX">     2</i>
    <i type="logical" name="NLSPLINE"> F  </i>
   </separator>
   <separator name="electronic startup" >
    <i type="int" name="ISTART">     1</i>
    <i type="int" name="ICHARG">     0</i>
    <i type="int" name="INIWAV">     1</i>
   </separator>
   <separator name="electronic spin" >
    <i type="int" name="ISPIN">     1</i>
    <i type="logical" name="LNONCOLLINEAR"> F  </i>
    <v name="MAGMOM">      1.00000000      1.00000000      1.00000000      1.00000000      1.00000000      1.00000000      1.00000000      1.00000000      1.00000000      1.00000000      1.00000000      1.00000000      1.00000000      1.00000000      1.00000000</v>
    <i name="NUPDOWN">     -1.00000000</i>
    <i type="logical" name="LSORBIT"> F  </i>
    <v name="SAXIS">      0.00000000      0.00000000      1.00000000</v>
    <i type="logical" name="LSPIRAL"> F  </i>
    <v name="QSPIRAL">      0.00000000      0.00000000      0.00000000</v>
    <i type="logical" name="LZEROZ"> F  </i>
   </separator>
   <separator name="electronic exchange-correlation" >
    <i type="logical" name="LASPH"> F  </i>
    <i type="logical" name="LMETAGGA"> F  </i>
   </separator>
   <separator name="electronic convergence" >
    <i type="int" name="NELM">    60</i>
    <i type="int" name="NELMDL">     0</i>
    <i type="int" name="NELMIN">     2</i>
    <i name="ENINI">    500.00000000</i>
    <separator name="electronic convergence detail" >
     <i type="logical" name="LDIAG"> T  </i>
     <i type="logical" name="LSUBROT"> F  </i>
     <i name="WEIMIN">      0.00000000</i>
     <i name="EBREAK">      0.00000003</i>
     <i name="DEPER">      0.30000000</i>
     <i type="int" name="NRMM">     4</i>
     <i name="TIME">      0.40000000</i>
    </separator>
   </separator>
   <separator name="electronic mixer" >
    <i name="AMIX">      0.40000000</i>
    <i name="BMIX">      1.00000000</i>
    <i name="AMIN">      0.10000000</i>
    <i name="AMIX_MAG">      1.60000000</i>
    <i name="BMIX_MAG">      1.00000000</i>
    <separator name="electronic mixer details" >
     <i type="int" name="IMIX">     4</i>
     <i type="logical" name="MIXFIRST"> F  </i>
     <i type="int" name="MAXMIX">   -45</i>
     <i name="WC">    100.00000000</i>
     <i type="int" name="INIMIX">     1</i>
     <i type="int" name="MIXPRE">     1</i>
     <i type="int" name="MREMOVE">     5</i>
    </separator>
   </separator>
   <separator name="electronic dipolcorrection" >
    <i type="logical" name="LDIPOL"> F  </i>
    <i type="logical" name="LMONO"> F  </i>
    <i type="int" name="IDIPOL">     0</i>
    <i name="EPSILON">      1.00000000</i>
    <v name="DIPOL">   -100.00000000   -100.00000000   -100.00000000</v>
    <i name="EFIELD">      0.00000000</i>
   </separator>
  </separator>
  <separator name="grids" >
   <i type="int" name="NGX">    30</i>
   <i type="int" name="NGY">    30</i>
   <i type="int" name="NGZ">    90</i>
   <i type="int" name="NGXF">    60</i>
   <i type="int" name="NGYF">    60</i>
   <i type="int" name="NGZF">   180</i>
   <i type="logical" name="ADDGRID"> F  </i>
  </separator>
  <separator name="ionic" >
   <i type="int" name="NSW">     0</i>
   <i type="int" name="IBRION">    -1</i>
   <i type="int" name="MDALGO">     0</i>
   <i type="int" name="ISIF">     2</i>
   <i name="PSTRESS">      0.00000000</i>
   <i name="EDIFFG">     -0.01000000</i>
   <i type="int" name="NFREE">     0</i>
   <i name="POTIM">      0.50000000</i>
   <i name="SMASS">     -3.00000000</i>
   <i name="SCALEE">      1.00000000</i>
  </separator>
  <separator name="ionic md" >
   <i name="TEBEG">      0.00010000</i>
   <i name="TEEND">      0.00010000</i>
   <i type="int" name="NBLOCK">     1</i>
   <i type="int" name="KBLOCK">     1</i>
   <i type="int" name="NPACO">   256</i>
   <i name="APACO">     16.00000000</i>
  </separator>
  <separator name="symmetry" >
   <i type="int" name="ISYM">     2</i>
   <i name="SYMPREC">      0.00001000</i>
  </separator>
  <separator name="dos" >
   <i type="int" name="LORBIT">     0</i>
   <v name="RWIGS">     -1.00000000     -1.00000000     -1.00000000     -1.00000000</v>
   <i type="int" name="NEDOS">   301</i>
   <i name="EMIN">     10.00000000</i>
   <i name="EMAX">    -10.00000000</i>
   <i name="EFERMI">      0.00000000</i>
  </separator>
  <separator name="writing" >
   <i type="int" name="NWRITE">     2</i>
   <i type="logical" name="LWAVE"> T  </i>
   <i type="logical" name="LDOWNSAMPLE"> F  </i>
   <i type="logical" name="LCHARG"> T  </i>
   <i type="logical" name="LPARD"> F  </i>
   <i type="logical" name="LVTOT"> F  </i>
   <i type="logical" name="LVHAR"> F  </i>
   <i type="logical" name="LELF"> F  </i>
   <i type="logical" name="LOPTICS"> F  </i>
   <v name="STM">      0.00000000      0.00000000      0.00000000      0.00000000      0.00000000      0.00000000      0.00000000</v>
  </separator>
  <separator name="performance" >
   <i type="int" name="NPAR">     4</i>
   <i type="int" name="NSIM">     4</i>
   <i type="int" name="NBLK">    -1</i>
   <i type="logical" name="LPLANE"> T  </i>
   <i type="logical" name="LSCALAPACK"> T  </i>
   <i type="logical" name="LSCAAWARE"> F  </i>
   <i type="logical" name="LSCALU"> F  </i>
   <i type="logical" name="LASYNC"> F  </i>
   <i type="logical" name="LORBITALREAL"> F  </i>
  </separator>
  <separator name="miscellaneous" >
   <i type="int" name="IDIOT">     3</i>
   <i type="int" name="ISPECIAL">     0</i>
   <i type="logical" name="LMUSIC"> F  </i>
   <v name="POMASS">     92.91000000     16.00000000     87.62000000     47.88000000</v>
   <v name="DARWINR">      0.00000000      0.00000000      0.00000000      0.00000000</v>
   <v name="DARWINV">      1.00000000      1.00000000      1.00000000      1.00000000</v>
   <i type="logical" name="LCORR"> T  </i>
  </separator>
  <i type="logical" name="GGA_COMPAT"> T  </i>
  <i type="logical" name="LBERRY"> F  </i>
  <i type="int" name="ICORELEVEL">     0</i>
  <i type="logical" name="LDAU"> F  </i>
  <i type="int" name="I_CONSTRAINED_M">     0</i>
  <separator name="electronic exchange-correlation" >
   <i type="string" name="GGA">--</i>
   <i type="int" name="VOSKOWN">     0</i>
   <i type="logical" name="LHFCALC"> F  </i>
   <i type="string" name="PRECFOCK"></i>
   <i type="logical" name="LSYMGRAD"> F  </i>
   <i type="logical" name="LHFONE"> F  </i>
   <i type="logical" name="LRHFCALC"> F  </i>
   <i type="logical" name="LTHOMAS"> F  </i>
   <i type="logical" name="LMODELHF"> F  </i>
   <i name="ENCUT4O">     -1.00000000</i>
   <i type="int" name="EXXOEP">     0</i>
   <i type="int" name="FOURORBIT">     0</i>
   <i name="AEXX">      0.00000000</i>
   <i name="HFALPHA">      0.00000000</i>
   <i name="MCALPHA">      0.00000000</i>
   <i name="ALDAX">      1.00000000</i>
   <i name="AGGAX">      1.00000000</i>
   <i name="ALDAC">      1.00000000</i>
   <i name="AGGAC">      1.00000000</i>
   <i type="int" name="NKREDX">     1</i>
   <i type="int" name="NKREDY">     1</i>
   <i type="int" name="NKREDZ">     1</i>
   <i type="logical" name="SHIFTRED"> F  </i>
   <i type="logical" name="ODDONLY"> F  </i>
   <i type="logical" name="EVENONLY"> F  </i>
   <i type="int" name="LMAXFOCK">     0</i>
   <i type="int" name="NMAXFOCKAE">     0</i>
   <i type="logical" name="LFOCKAEDFT"> F  </i>
   <i name="HFSCREEN">      0.00000000</i>
   <i name="HFSCREENC">      0.00000000</i>
   <i type="int" name="NBANDSGWLOW">     0</i>
  </separator>
  <separator name="vdW DFT" >
   <i type="logical" name="LUSE_VDW"> F  </i>
   <i name="Zab_VDW">     -0.84910000</i>
   <i name="PARAM1">      0.12340000</i>
   <i name="PARAM2">      1.00000000</i>
   <i name="PARAM3">      0.00000000</i>
  </separator>
  <separator name="model GW" >
   <i type="int" name="MODEL_GW">     0</i>
   <i name="MODEL_EPS0">      7.80956212</i>
   <i name="MODEL_ALPHA">      1.00000000</i>
  </separator>
  <separator name="linear response parameters" >
   <i type="logical" name="LEPSILON"> F  </i>
   <i type="logical" name="LRPA"> F  </i>
   <i type="logical" name="LNABLA"> F  </i>
   <i type="logical" name="LVEL"> F  </i>
   <i type="int" name="KINTER">     0</i>
   <i name="CSHIFT">      0.10000000</i>
   <i name="OMEGAMAX">     -1.00000000</i>
   <i name="DEG_THRESHOLD">      0.00200000</i>
   <i name="RTIME">     -0.10000000</i>
   <i name="WPLASMAI">      0.00000000</i>
   <v name="DFIELD">      0.00000000      0.00000000      0.00000000</v>
   <v name="WPLASMA">      0.00000000      0.00000000      0.00000000      0.00000000      0.00000000      0.00000000      0.00000000      0.00000000      0.00000000</v>
  </separator>
  <separator name="orbital magnetization" >
   <i type="logical" name="NUCIND"> F  </i>
   <v name="MAGPOS">      0.00000000      0.00000000      0.00000000</v>
   <i type="logical" name="LNICSALL"> T  </i>
   <i type="logical" name="ORBITALMAG"> F  </i>
   <i type="logical" name="LMAGBLOCH"> F  </i>
   <i type="logical" name="LCHIMAG"> F  </i>
   <i type="logical" name="LGAUGE"> T  </i>
   <i type="int" name="MAGATOM">     0</i>
   <v name="MAGDIPOL">      0.00000000      0.00000000      0.00000000</v>
   <v name="AVECCONST">      0.00000000      0.00000000      0.00000000</v>
  </separator>
  <separator name="response functions" >
   <i type="logical" name="LADDER"> F  </i>
   <i type="logical" name="LRPAFORCE"> F  </i>
   <i type="logical" name="LFXC"> F  </i>
   <i type="logical" name="LHARTREE"> T  </i>
   <i type="int" name="IBSE">     0</i>
   <v type="int" name="KPOINT">    -1     0     0     0</v>
   <i type="logical" name="LTCTE"> F  </i>
   <i type="logical" name="LTETE"> F  </i>
   <i type="logical" name="LTRIPLET"> F  </i>
   <i type="logical" name="LFXCEPS"> F  </i>
   <i type="logical" name="LFXHEG"> F  </i>
   <i type="int" name="NATURALO">     2</i>
   <i type="logical" name="L2ORDER"> F  </i>
   <i type="logical" name="LMP2LT"> F  </i>
   <i type="logical" name="LUSEW"> F  </i>
   <i name="ENCUTGW">     -2.00000000</i>
   <i name="ENCUTGWSOFT">     -2.00000000</i>
   <i name="ENCUTLF">     -1.00000000</i>
   <i type="int" name="LMAXMP2">    -1</i>
   <i name="SCISSOR">      0.00000000</i>
   <i type="int" name="NOMEGA">     0</i>
   <i type="int" name="NOMEGAR">     0</i>
   <i type="int" name="NBANDSGW">    -1</i>
   <i type="int" name="NBANDSO">    -1</i>
   <i type="int" name="NBANDSV">    -1</i>
   <i type="int" name="NELM">     1</i>
   <i type="int" name="NELMHF">     1</i>
   <i type="int" name="DIM">     3</i>
   <i type="int" name="ANTIRES">     0</i>
   <i name="OMEGAMAX">    -30.00000000</i>
   <i name="OMEGAMIN">    -30.00000000</i>
   <i name="OMEGATL">   -200.00000000</i>
   <i type="int" name="OMEGAGRID">   140</i>
   <i name="CSHIFT">     -0.10000000</i>
   <i type="logical" name="SELFENERGY"> F  </i>
   <i type="logical" name="LSPECTRAL"> F  </i>
   <i type="logical" name="LSPECTRALGW"> F  </i>
   <i type="logical" name="LSINGLES"> F  </i>
   <i type="logical" name="LFERMIGW"> F  </i>
   <i type="logical" name="ODDONLYGW"> F  </i>
   <i type="logical" name="EVENONLYGW"> F  </i>
   <i type="int" name="NKREDLFX">     1</i>
   <i type="int" name="NKREDLFY">     1</i>
   <i type="int" name="NKREDLFZ">     1</i>
   <i type="int" name="MAXMEM">  2800</i>
   <i type="int" name="TELESCOPE">     0</i>
   <i type="int" name="TAUPAR">     1</i>
   <i type="int" name="OMEGAPAR">    -1</i>
   <i name="LAMBDA">      1.00000000</i>
  </separator>
  <separator name="External order field" >
   <i name="OFIELD_KAPPA">      0.00000000</i>
   <v name="OFIELD_K">      0.00000000      0.00000000      0.00000000</v>
   <i name="OFIELD_Q6_NEAR">      0.00000000</i>
   <i name="OFIELD_Q6_FAR">      0.00000000</i>
   <i name="OFIELD_A">      0.00000000</i>
  </separator>
 </parameters>
 <atominfo>
  <atoms>      15 </atoms>
  <types>       4 </types>
  <array name="atoms" >
   <dimension dim="1">ion</dimension>
   <field type="string">element</field>
   <field type="int">atomtype</field>
   <set>
    <rc><c>Nb</c><c>   1</c></rc>
    <rc><c>Nb</c><c>   1</c></rc>
    <rc><c>O </c><c>   2</c></rc>
    <rc><c>O </c><c>   2</c></rc>
    <rc><c>O </c><c>   2</c></rc>
    <rc><c>O </c><c>   2</c></rc>
    <rc><c>O </c><c>   2</c></rc>
    <rc><c>O </c><c>   2</c></rc>
    <rc><c>O </c><c>   2</c></rc>
    <rc><c>O </c><c>   2</c></rc>
    <rc><c>O </c><c>   2</c></rc>
    <rc><c>Sr</c><c>   3</c></rc>
    <rc><c>Sr</c><c>   3</c></rc>
    <rc><c>Sr</c><c>   3</c></rc>
    <rc><c>Ti</c><c>   4</c></rc>
   </set>
  </array>
  <array name="atomtypes" >
   <dimension dim="1">type</dimension>
   <field type="int">atomspertype</field>
   <field type="string">element</field>
   <field>mass</field>
   <field>valence</field>
   <field type="string">pseudopotential</field>
   <set>
    <rc><c>   2</c><c>Nb</c><c>     92.91000000</c><c>     13.00000000</c><c>  PAW_PBE Nb_sv 25May2007               </c></rc>
    <rc><c>   9</c><c>O </c><c>     16.00000000</c><c>      6.00000000</c><c>  PAW_PBE O 08Apr2002                   </c></rc>
    <rc><c>   3</c><c>Sr</c><c>     87.62000000</c><c>     10.00000000</c><c>  PAW_PBE Sr_sv 07Sep2000               </c></rc>
    <rc><c>   1</c><c>Ti</c><c>     47.88000000</c><c>     12.00000000</c><c>  PAW_PBE Ti_sv 26Sep2005               </c></rc>
   </set>
  </array>
 </atominfo>
 <structure name="initialpos" >
  <crystal>
   <varray name="basis" >
    <v>       0.00000000       0.00000000      -4.02333223 </v>
    <v>       0.00000000       4.02333223       0.00000000 </v>
    <v>      12.06132168       0.00000000       0.00000000 </v>
   </varray>
   <i name="volume">    195.23905300 </i>
   <varray name="rec_basis" >
    <v>       0.00000000       0.00000000      -0.24855019 </v>
    <v>       0.00000000       0.24855019       0.00000000 </v>
    <v>       0.08290965       0.00000000       0.00000000 </v>
   </varray>
  </crystal>
  <varray name="positions" >
   <v>       0.50000000       0.50000000       0.16423027 </v>
   <v>       0.50000000       0.50000000       0.50243639 </v>
   <v>       0.50000000       0.50000000       0.33333333 </v>
   <v>       0.50000000       0.00000000       0.16683099 </v>
   <v>       0.00000000       0.50000000       0.16683099 </v>
   <v>       0.50000000       0.50000000       0.66842969 </v>
   <v>       0.50000000       0.00000000       0.49983568 </v>
   <v>       0.00000000       0.50000000       0.49983568 </v>
   <v>       0.50000000       0.50000000       0.99823697 </v>
   <v>       0.50000000       0.00000000       0.83333333 </v>
   <v>       0.00000000       0.50000000       0.83333333 </v>
   <v>       0.00000000       0.00000000       0.33333333 </v>
   <v>       0.00000000       0.00000000       0.67969351 </v>
   <v>       0.00000000       0.00000000       0.98697316 </v>
   <v>       0.50000000       0.50000000       0.83333333 </v>
  </varray>
 </structure>
 <calculation>
  <scstep>
   <time name="dav">    1.03    1.03</time>
   <time name="total">    1.14    1.14</time>
   <energy>
    <i name="alphaZ">    676.74823403 </i>
    <i name="ewald">  -8735.36730960 </i>
    <i name="hartreedc">  -2531.24669407 </i>
    <i name="XCdc">    538.42707497 </i>
    <i name="pawpsdc">  13294.45617367 </i>
    <i name="pawaedc"> -13223.51891881 </i>
    <i name="eentropy">      0.00000000 </i>
    <i name="bandstr">  -1260.56897293 </i>
    <i name="atom">  11118.75352351 </i>
    <i name="e_fr_energy">   -122.31688923 </i>
    <i name="e_wo_entrp">   -122.31688923 </i>
    <i name="e_0_energy">   -122.31688923 </i>
   </energy>
  </scstep>
  <scstep>
   <time name="dav">    1.12    1.13</time>
   <time name="total">    1.23    1.23</time>
   <energy>
    <i name="e_fr_energy">   -122.31694255 </i>
    <i name="e_wo_entrp">   -122.31694255 </i>
    <i name="e_0_energy">   -122.31694255 </i>
   </energy>
  </scstep>
  <scstep>
   <time name="dav">    1.11    1.11</time>
   <time name="total">    1.22    1.22</time>
   <energy>
    <i name="e_fr_energy">   -122.31689418 </i>
    <i name="e_wo_entrp">   -122.31689418 </i>
    <i name="e_0_energy">   -122.31689418 </i>
   </energy>
  </scstep>
  <scstep>
   <time name="dav">    1.06    1.06</time>
   <time name="total">    1.17    1.17</time>
   <energy>
    <i name="e_fr_energy">   -122.31694385 </i>
    <i name="e_wo_entrp">   -122.31694385 </i>
    <i name="e_0_energy">   -122.31694385 </i>
   </energy>
  </scstep>
  <scstep>
   <time name="dav">    0.85    0.86</time>
   <time name="total">    0.90    0.91</time>
   <energy>
    <i name="alphaZ">    676.74823403 </i>
    <i name="ewald">  -8735.36730960 </i>
    <i name="hartreedc">  -2531.32161465 </i>
    <i name="XCdc">    538.43130311 </i>
    <i name="pawpsdc">  13282.40834640 </i>
    <i name="pawaedc"> -13211.45416257 </i>
    <i name="eentropy">      0.00000000 </i>
    <i name="bandstr">  -1260.51525816 </i>
    <i name="atom">  11118.75352351 </i>
    <i name="e_fr_energy">   -122.31693793 </i>
    <i name="e_wo_entrp">   -122.31693793 </i>
    <i name="e_0_energy">   -122.31693793 </i>
   </energy>
  </scstep>
  <structure>
   <crystal>
    <varray name="basis" >
     <v>       0.00000000       0.00000000      -4.02333223 </v>
     <v>       0.00000000       4.02333223       0.00000000 </v>
     <v>      12.06132168       0.00000000       0.00000000 </v>
    </varray>
    <i name="volume">    195.23905300 </i>
    <varray name="rec_basis" >
     <v>       0.00000000       0.00000000      -0.24855019 </v>
     <v>       0.00000000       0.24855019       0.00000000 </v>
     <v>       0.08290965       0.00000000       0.00000000 </v>
    </varray>
   </crystal>
   <varray name="positions" >
    <v>       0.50000000       0.50000000       0.16423027 </v>
    <v>       0.50000000       0.50000000       0.50243639 </v>
    <v>       0.50000000       0.50000000       0.33333333 </v>
    <v>       0.50000000       0.00000000       0.16683099 </v>
    <v>       0.00000000       0.50000000       0.16683099 </v>
    <v>       0.50000000       0.50000000       0.66842969 </v>
    <v>       0.50000000       0.00000000       0.49983568 </v>
    <v>       0.00000000       0.50000000       0.49983568 </v>
    <v>       0.50000000       0.50000000       0.99823697 </v>
    <v>       0.50000000       0.00000000       0.83333333 </v>
    <v>       0.00000000       0.50000000       0.83333333 </v>
    <v>       0.00000000       0.00000000       0.33333333 </v>
    <v>       0.00000000       0.00000000       0.67969351 </v>
    <v>       0.00000000       0.00000000       0.98697316 </v>
    <v>       0.50000000       0.50000000       0.83333333 </v>
   </varray>
  </structure>
  <varray name="forces" >
   <v>       0.00628917       0.00000000       0.00000000 </v>
   <v>      -0.00628917       0.00000000       0.00000000 </v>
   <v>      -0.00000000      -0.00000000       0.00000000 </v>
   <v>      -0.00104408      -0.00000000       0.00000000 </v>
   <v>      -0.00104408       0.00000000      -0.00000000 </v>
   <v>       0.00285541       0.00000000      -0.00000000 </v>
   <v>       0.00104408      -0.00000000       0.00000000 </v>
   <v>       0.00104408      -0.00000000       0.00000000 </v>
   <v>      -0.00285541      -0.00000000       0.00000000 </v>
   <v>      -0.00000000      -0.00000000       0.00000000 </v>
   <v>      -0.00000000      -0.00000000       0.00000000 </v>
   <v>      -0.00000000      -0.00000000       0.00000000 </v>
   <v>       0.00001896      -0.00000000       0.00000000 </v>
   <v>      -0.00001896      -0.00000000       0.00000000 </v>
   <v>      -0.00000000       0.00000000       0.00000000 </v>
  </varray>
  <varray name="stress" >
   <v>       2.55272448      -0.00000000       0.00000000 </v>
   <v>      -0.00000000       2.36279264       0.00000000 </v>
   <v>       0.00000000       0.00000000       2.36279264 </v>
  </varray>
  <energy>
   <i name="e_fr_energy">   -122.31693793 </i>
   <i name="e_wo_entrp">   -122.31693793 </i>
   <i name="e_0_energy">      0.00000000 </i>
  </energy>
  <time name="totalsc">    7.55    8.28</time>
  <eigenvalues>
   <array>
    <dimension dim="1">band</dimension>
    <dimension dim="2">kpoint</dimension>
    <dimension dim="3">spin</dimension>
    <field>eigene</field>
    <field>occ</field>
    <set>
     <set comment="spin 1">
      <set comment="kpoint 1">
       <r>  -51.3629    1.0000 </r>
       <r>  -49.6669    1.0000 </r>
       <r>  -49.6659    1.0000 </r>
       <r>  -29.1576    1.0000 </r>
       <r>  -28.8277    1.0000 </r>
       <r>  -28.8137    1.0000 </r>
       <r>  -27.6315    1.0000 </r>
       <r>  -27.6253    1.0000 </r>
       <r>  -27.6253    1.0000 </r>
       <r>  -25.9126    1.0000 </r>
       <r>  -25.8488    1.0000 </r>
       <r>  -25.8265    1.0000 </r>
       <r>  -25.8265    1.0000 </r>
       <r>  -25.8242    1.0000 </r>
       <r>  -25.8242    1.0000 </r>
       <r>  -13.3995    1.0000 </r>
       <r>  -13.2677    1.0000 </r>
       <r>  -12.8945    1.0000 </r>
       <r>  -12.7357    1.0000 </r>
       <r>  -12.7208    1.0000 </r>
       <r>  -12.4596    1.0000 </r>
       <r>  -11.9425    1.0000 </r>
       <r>  -11.8829    1.0000 </r>
       <r>  -11.7042    1.0000 </r>
       <r>  -11.1219    1.0000 </r>
       <r>  -11.1219    1.0000 </r>
       <r>  -10.9557    1.0000 </r>
       <r>  -10.7959    1.0000 </r>
       <r>  -10.7959    1.0000 </r>
       <r>  -10.7605    1.0000 </r>
       <r>  -10.7605    1.0000 </r>
       <r>  -10.6414    1.0000 </r>
       <r>  -10.3128    1.0000 </r>
       <r>   -0.0354    1.0000 </r>
       <r>    0.5637    1.0000 </r>
       <r>    1.4554    1.0000 </r>
       <r>    1.4554    1.0000 </r>
       <r>    1.6135    1.0000 </r>
       <r>    1.6135    1.0000 </r>
       <r>    1.6432    1.0000 </r>
       <r>    1.7022    1.0000 </r>
       <r>    1.7022    1.0000 </r>
       <r>    1.7170    1.0000 </r>
       <r>    1.9749    1.0000 </r>
       <r>    1.9749    1.0000 </r>
       <r>    2.1250    1.0000 </r>
       <r>    2.1250    1.0000 </r>
       <r>    2.1698    1.0000 </r>
       <r>    2.1739    1.0000 </r>
       <r>    2.4146    1.0000 </r>
       <r>    2.8982    1.0000 </r>
       <r>    2.8982    1.0000 </r>
       <r>    3.0386    1.0000 </r>
       <r>    3.1146    1.0000 </r>
       <r>    3.1146    1.0000 </r>
       <r>    3.2746    1.0000 </r>
       <r>    3.2746    1.0000 </r>
       <r>    3.6549    1.0000 </r>
       <r>    3.9004    1.0000 </r>
       <r>    3.9004    1.0000 </r>
       <r>    6.1198    1.0000 </r>
       <r>    6.2587    1.0000 </r>
       <r>    6.3308    1.0000 </r>
       <r>    6.3308    1.0000 </r>
       <r>    6.7949    1.1396 </r>
       <r>    8.0316    0.0000 </r>
       <r>    8.0316    0.0000 </r>
       <r>    8.0762    0.0000 </r>
       <r>    8.0762    0.0000 </r>
       <r>    8.9740    0.0000 </r>
       <r>    9.3154    0.0000 </r>
       <r>    9.3886    0.0000 </r>
       <r>    9.4105    0.0000 </r>
       <r>    9.4993    0.0000 </r>
       <r>   10.1577    0.0000 </r>
       <r>   10.1623    0.0000 </r>
      </set>
      <set comment="kpoint 2">
       <r>  -51.3627    1.0000 </r>
       <r>  -49.6665    1.0000 </r>
       <r>  -49.6654    1.0000 </r>
       <r>  -29.1550    1.0000 </r>
       <r>  -28.8259    1.0000 </r>
       <r>  -28.8105    1.0000 </r>
       <r>  -27.6344    1.0000 </r>
       <r>  -27.6321    1.0000 </r>
       <r>  -27.6249    1.0000 </r>
       <r>  -25.9125    1.0000 </r>
       <r>  -25.8556    1.0000 </r>
       <r>  -25.8542    1.0000 </r>
       <r>  -25.8478    1.0000 </r>
       <r>  -25.8255    1.0000 </r>
       <r>  -25.8233    1.0000 </r>
       <r>  -13.2920    1.0000 </r>
       <r>  -13.2169    1.0000 </r>
       <r>  -12.8812    1.0000 </r>
       <r>  -12.6560    1.0000 </r>
       <r>  -12.6413    1.0000 </r>
       <r>  -12.4451    1.0000 </r>
       <r>  -12.0149    1.0000 </r>
       <r>  -11.9603    1.0000 </r>
       <r>  -11.7223    1.0000 </r>
       <r>  -11.1157    1.0000 </r>
       <r>  -11.0260    1.0000 </r>
       <r>  -10.9579    1.0000 </r>
       <r>  -10.7898    1.0000 </r>
       <r>  -10.7537    1.0000 </r>
       <r>  -10.7144    1.0000 </r>
       <r>  -10.6709    1.0000 </r>
       <r>  -10.6315    1.0000 </r>
       <r>  -10.3346    1.0000 </r>
       <r>   -0.0414    1.0000 </r>
       <r>    0.5031    1.0000 </r>
       <r>    0.8092    1.0000 </r>
       <r>    1.1679    1.0000 </r>
       <r>    1.3735    1.0000 </r>
       <r>    1.3980    1.0000 </r>
       <r>    1.4292    1.0000 </r>
       <r>    1.5288    1.0000 </r>
       <r>    1.6485    1.0000 </r>
       <r>    1.6616    1.0000 </r>
       <r>    1.6762    1.0000 </r>
       <r>    1.8851    1.0000 </r>
       <r>    1.9953    1.0000 </r>
       <r>    2.0183    1.0000 </r>
       <r>    2.3400    1.0000 </r>
       <r>    2.5913    1.0000 </r>
       <r>    2.6275    1.0000 </r>
       <r>    2.6670    1.0000 </r>
       <r>    2.7394    1.0000 </r>
       <r>    2.7633    1.0000 </r>
       <r>    2.8644    1.0000 </r>
       <r>    2.9412    1.0000 </r>
       <r>    3.1480    1.0000 </r>
       <r>    3.1697    1.0000 </r>
       <r>    3.4683    1.0000 </r>
       <r>    3.5872    1.0000 </r>
       <r>    3.7384    1.0000 </r>
       <r>    6.3669    1.0000 </r>
       <r>    6.6508    0.9891 </r>
       <r>    6.7629    0.9068 </r>
       <r>    6.7993    0.8763 </r>
       <r>    7.1388    0.3641 </r>
       <r>    8.0489    0.0000 </r>
       <r>    8.0919    0.0000 </r>
       <r>    8.1151    0.0000 </r>
       <r>    8.1481    0.0000 </r>
       <r>    9.2340    0.0000 </r>
       <r>    9.6064    0.0000 </r>
       <r>    9.6648    0.0000 </r>
       <r>    9.7121    0.0000 </r>
       <r>    9.8705    0.0000 </r>
       <r>   10.5662    0.0000 </r>
       <r>   10.6594    0.0000 </r>
      </set>
      <set comment="kpoint 3">
       <r>  -51.3623    1.0000 </r>
       <r>  -49.6654    1.0000 </r>
       <r>  -49.6644    1.0000 </r>
       <r>  -29.1493    1.0000 </r>
       <r>  -28.8218    1.0000 </r>
       <r>  -28.8033    1.0000 </r>
       <r>  -27.6547    1.0000 </r>
       <r>  -27.6332    1.0000 </r>
       <r>  -27.6240    1.0000 </r>
       <r>  -25.9198    1.0000 </r>
       <r>  -25.9197    1.0000 </r>
       <r>  -25.9123    1.0000 </r>
       <r>  -25.8463    1.0000 </r>
       <r>  -25.8233    1.0000 </r>
       <r>  -25.8211    1.0000 </r>
       <r>  -13.2564    1.0000 </r>
       <r>  -13.0992    1.0000 </r>
       <r>  -12.8071    1.0000 </r>
       <r>  -12.4964    1.0000 </r>
       <r>  -12.4128    1.0000 </r>
       <r>  -12.3059    1.0000 </r>
       <r>  -12.1481    1.0000 </r>
       <r>  -12.0213    1.0000 </r>
       <r>  -11.7278    1.0000 </r>
       <r>  -11.1016    1.0000 </r>
       <r>  -10.9554    1.0000 </r>
       <r>  -10.8494    1.0000 </r>
       <r>  -10.7761    1.0000 </r>
       <r>  -10.7384    1.0000 </r>
       <r>  -10.6818    1.0000 </r>
       <r>  -10.5480    1.0000 </r>
       <r>  -10.4720    1.0000 </r>
       <r>  -10.3515    1.0000 </r>
       <r>   -0.0618    1.0000 </r>
       <r>   -0.0204    1.0000 </r>
       <r>    0.2762    1.0000 </r>
       <r>    0.2855    1.0000 </r>
       <r>    0.5622    1.0000 </r>
       <r>    0.6269    1.0000 </r>
       <r>    1.1843    1.0000 </r>
       <r>    1.2697    1.0000 </r>
       <r>    1.3077    1.0000 </r>
       <r>    1.5258    1.0000 </r>
       <r>    1.6049    1.0000 </r>
       <r>    1.7357    1.0000 </r>
       <r>    1.7952    1.0000 </r>
       <r>    2.0053    1.0000 </r>
       <r>    2.1381    1.0000 </r>
       <r>    2.1495    1.0000 </r>
       <r>    2.2450    1.0000 </r>
       <r>    2.3143    1.0000 </r>
       <r>    2.4188    1.0000 </r>
       <r>    2.6392    1.0000 </r>
       <r>    2.7316    1.0000 </r>
       <r>    2.9321    1.0000 </r>
       <r>    2.9761    1.0000 </r>
       <r>    3.3286    1.0000 </r>
       <r>    3.4617    1.0000 </r>
       <r>    3.5081    1.0000 </r>
       <r>    3.7047    1.0000 </r>
       <r>    6.4608    1.0007 </r>
       <r>    7.7076   -0.0208 </r>
       <r>    7.7426   -0.0337 </r>
       <r>    7.7742   -0.0514 </r>
       <r>    7.8257   -0.0063 </r>
       <r>    8.0936    0.0000 </r>
       <r>    8.1319    0.0000 </r>
       <r>    8.4675    0.0000 </r>
       <r>    8.5259    0.0000 </r>
       <r>    9.3513    0.0000 </r>
       <r>   10.1963    0.0000 </r>
       <r>   10.2771    0.0000 </r>
       <r>   10.3986    0.0000 </r>
       <r>   10.7273    0.0000 </r>
       <r>   10.7564    0.0000 </r>
       <r>   11.1933    0.0000 </r>
      </set>
      <set comment="kpoint 4">
       <r>  -51.3619    1.0000 </r>
       <r>  -49.6645    1.0000 </r>
       <r>  -49.6635    1.0000 </r>
       <r>  -29.1448    1.0000 </r>
       <r>  -28.8186    1.0000 </r>
       <r>  -28.7976    1.0000 </r>
       <r>  -27.6708    1.0000 </r>
       <r>  -27.6342    1.0000 </r>
       <r>  -27.6233    1.0000 </r>
       <r>  -25.9713    1.0000 </r>
       <r>  -25.9702    1.0000 </r>
       <r>  -25.9122    1.0000 </r>
       <r>  -25.8449    1.0000 </r>
       <r>  -25.8215    1.0000 </r>
       <r>  -25.8193    1.0000 </r>
       <r>  -13.3457    1.0000 </r>
       <r>  -12.9924    1.0000 </r>
       <r>  -12.7581    1.0000 </r>
       <r>  -12.5040    1.0000 </r>
       <r>  -12.2316    1.0000 </r>
       <r>  -12.1950    1.0000 </r>
       <r>  -12.1029    1.0000 </r>
       <r>  -11.8405    1.0000 </r>
       <r>  -11.7711    1.0000 </r>
       <r>  -11.0902    1.0000 </r>
       <r>  -10.9341    1.0000 </r>
       <r>  -10.7651    1.0000 </r>
       <r>  -10.7307    1.0000 </r>
       <r>  -10.7260    1.0000 </r>
       <r>  -10.6592    1.0000 </r>
       <r>  -10.4713    1.0000 </r>
       <r>  -10.4218    1.0000 </r>
       <r>  -10.2681    1.0000 </r>
       <r>   -0.6640    1.0000 </r>
       <r>   -0.6567    1.0000 </r>
       <r>   -0.3438    1.0000 </r>
       <r>   -0.0145    1.0000 </r>
       <r>    0.1252    1.0000 </r>
       <r>    0.4662    1.0000 </r>
       <r>    0.8388    1.0000 </r>
       <r>    1.1132    1.0000 </r>
       <r>    1.1785    1.0000 </r>
       <r>    1.3052    1.0000 </r>
       <r>    1.6179    1.0000 </r>
       <r>    1.6422    1.0000 </r>
       <r>    1.6786    1.0000 </r>
       <r>    1.6863    1.0000 </r>
       <r>    1.8262    1.0000 </r>
       <r>    2.1259    1.0000 </r>
       <r>    2.1545    1.0000 </r>
       <r>    2.1646    1.0000 </r>
       <r>    2.2425    1.0000 </r>
       <r>    2.6460    1.0000 </r>
       <r>    2.6730    1.0000 </r>
       <r>    2.7558    1.0000 </r>
       <r>    2.8375    1.0000 </r>
       <r>    3.3965    1.0000 </r>
       <r>    3.4592    1.0000 </r>
       <r>    3.5217    1.0000 </r>
       <r>    3.8993    1.0000 </r>
       <r>    6.5423    1.0078 </r>
       <r>    8.1112    0.0000 </r>
       <r>    8.1485    0.0000 </r>
       <r>    8.3419    0.0000 </r>
       <r>    8.4073    0.0000 </r>
       <r>    8.5536    0.0000 </r>
       <r>    8.5785    0.0000 </r>
       <r>    8.9447    0.0000 </r>
       <r>    9.0754    0.0000 </r>
       <r>    9.3741    0.0000 </r>
       <r>   10.4074    0.0000 </r>
       <r>   10.8277    0.0000 </r>
       <r>   10.8671    0.0000 </r>
       <r>   10.9689    0.0000 </r>
       <r>   11.3458    0.0000 </r>
       <r>   11.6175    0.0000 </r>
      </set>
      <set comment="kpoint 5">
       <r>  -51.3625    1.0000 </r>
       <r>  -49.6660    1.0000 </r>
       <r>  -49.6650    1.0000 </r>
       <r>  -29.1525    1.0000 </r>
       <r>  -28.8238    1.0000 </r>
       <r>  -28.8075    1.0000 </r>
       <r>  -27.6350    1.0000 </r>
       <r>  -27.6334    1.0000 </r>
       <r>  -27.6324    1.0000 </r>
       <r>  -25.9122    1.0000 </r>
       <r>  -25.8553    1.0000 </r>
       <r>  -25.8543    1.0000 </r>
       <r>  -25.8535    1.0000 </r>
       <r>  -25.8529    1.0000 </r>
       <r>  -25.8468    1.0000 </r>
       <r>  -13.1679    1.0000 </r>
       <r>  -13.1395    1.0000 </r>
       <r>  -12.8420    1.0000 </r>
       <r>  -12.6192    1.0000 </r>
       <r>  -12.5733    1.0000 </r>
       <r>  -12.4212    1.0000 </r>
       <r>  -12.0532    1.0000 </r>
       <r>  -11.9753    1.0000 </r>
       <r>  -11.7713    1.0000 </r>
       <r>  -11.1175    1.0000 </r>
       <r>  -10.9639    1.0000 </r>
       <r>  -10.9628    1.0000 </r>
       <r>  -10.7918    1.0000 </r>
       <r>  -10.7033    1.0000 </r>
       <r>  -10.6976    1.0000 </r>
       <r>  -10.6728    1.0000 </r>
       <r>  -10.5888    1.0000 </r>
       <r>  -10.3445    1.0000 </r>
       <r>   -0.0449    1.0000 </r>
       <r>    0.4165    1.0000 </r>
       <r>    0.7290    1.0000 </r>
       <r>    0.9701    1.0000 </r>
       <r>    0.9791    1.0000 </r>
       <r>    1.2055    1.0000 </r>
       <r>    1.3179    1.0000 </r>
       <r>    1.3769    1.0000 </r>
       <r>    1.4297    1.0000 </r>
       <r>    1.4675    1.0000 </r>
       <r>    1.5278    1.0000 </r>
       <r>    1.6545    1.0000 </r>
       <r>    1.7682    1.0000 </r>
       <r>    2.0777    1.0000 </r>
       <r>    2.2040    1.0000 </r>
       <r>    2.4959    1.0000 </r>
       <r>    2.5310    1.0000 </r>
       <r>    2.6779    1.0000 </r>
       <r>    2.7330    1.0000 </r>
       <r>    2.7856    1.0000 </r>
       <r>    2.8507    1.0000 </r>
       <r>    2.9340    1.0000 </r>
       <r>    2.9935    1.0000 </r>
       <r>    3.1591    1.0000 </r>
       <r>    3.2273    1.0000 </r>
       <r>    3.4898    1.0000 </r>
       <r>    3.5844    1.0000 </r>
       <r>    6.7697    0.9916 </r>
       <r>    6.8876    0.7315 </r>
       <r>    7.0007    0.5621 </r>
       <r>    7.1348    0.4094 </r>
       <r>    7.3851   -0.0189 </r>
       <r>    8.1472    0.0000 </r>
       <r>    8.1616    0.0000 </r>
       <r>    8.1634    0.0000 </r>
       <r>    8.1852    0.0000 </r>
       <r>    9.7288    0.0000 </r>
       <r>    9.7494    0.0000 </r>
       <r>    9.9084    0.0000 </r>
       <r>    9.9814    0.0000 </r>
       <r>   10.2338    0.0000 </r>
       <r>   10.8880    0.0000 </r>
       <r>   10.9156    0.0000 </r>
      </set>
      <set comment="kpoint 6">
       <r>  -51.3621    1.0000 </r>
       <r>  -49.6649    1.0000 </r>
       <r>  -49.6639    1.0000 </r>
       <r>  -29.1467    1.0000 </r>
       <r>  -28.8190    1.0000 </r>
       <r>  -28.8006    1.0000 </r>
       <r>  -27.6550    1.0000 </r>
       <r>  -27.6337    1.0000 </r>
       <r>  -27.6332    1.0000 </r>
       <r>  -25.9193    1.0000 </r>
       <r>  -25.9187    1.0000 </r>
       <r>  -25.9116    1.0000 </r>
       <r>  -25.8529    1.0000 </r>
       <r>  -25.8510    1.0000 </r>
       <r>  -25.8452    1.0000 </r>
       <r>  -13.1421    1.0000 </r>
       <r>  -12.9403    1.0000 </r>
       <r>  -12.7261    1.0000 </r>
       <r>  -12.4631    1.0000 </r>
       <r>  -12.3664    1.0000 </r>
       <r>  -12.3050    1.0000 </r>
       <r>  -12.1299    1.0000 </r>
       <r>  -12.0021    1.0000 </r>
       <r>  -11.7822    1.0000 </r>
       <r>  -11.0992    1.0000 </r>
       <r>  -10.9739    1.0000 </r>
       <r>  -10.8547    1.0000 </r>
       <r>  -10.7935    1.0000 </r>
       <r>  -10.7333    1.0000 </r>
       <r>  -10.7068    1.0000 </r>
       <r>  -10.5364    1.0000 </r>
       <r>  -10.5126    1.0000 </r>
       <r>  -10.3354    1.0000 </r>
       <r>   -0.0575    1.0000 </r>
       <r>   -0.0082    1.0000 </r>
       <r>    0.2646    1.0000 </r>
       <r>    0.2717    1.0000 </r>
       <r>    0.5879    1.0000 </r>
       <r>    0.6252    1.0000 </r>
       <r>    0.8286    1.0000 </r>
       <r>    0.9607    1.0000 </r>
       <r>    0.9682    1.0000 </r>
       <r>    1.1736    1.0000 </r>
       <r>    1.3201    1.0000 </r>
       <r>    1.5525    1.0000 </r>
       <r>    1.6039    1.0000 </r>
       <r>    1.7764    1.0000 </r>
       <r>    1.8647    1.0000 </r>
       <r>    2.1800    1.0000 </r>
       <r>    2.2108    1.0000 </r>
       <r>    2.3497    1.0000 </r>
       <r>    2.6634    1.0000 </r>
       <r>    2.6718    1.0000 </r>
       <r>    2.7875    1.0000 </r>
       <r>    2.9566    1.0000 </r>
       <r>    3.0090    1.0000 </r>
       <r>    3.3393    1.0000 </r>
       <r>    3.3685    1.0000 </r>
       <r>    3.4189    1.0000 </r>
       <r>    3.6850    1.0000 </r>
       <r>    6.9010    0.8784 </r>
       <r>    7.7652   -0.0248 </r>
       <r>    7.8377   -0.0286 </r>
       <r>    7.9703   -0.0389 </r>
       <r>    7.9793   -0.0035 </r>
       <r>    8.2352    0.0000 </r>
       <r>    8.2399    0.0000 </r>
       <r>    8.5007    0.0000 </r>
       <r>    8.5848    0.0000 </r>
       <r>    9.7970    0.0000 </r>
       <r>   10.4742    0.0000 </r>
       <r>   10.5382    0.0000 </r>
       <r>   10.6772    0.0000 </r>
       <r>   11.0223    0.0000 </r>
       <r>   11.1050    0.0000 </r>
       <r>   11.3339    0.0000 </r>
      </set>
      <set comment="kpoint 7">
       <r>  -51.3617    1.0000 </r>
       <r>  -49.6641    1.0000 </r>
       <r>  -49.6631    1.0000 </r>
       <r>  -29.1421    1.0000 </r>
       <r>  -28.8152    1.0000 </r>
       <r>  -28.7951    1.0000 </r>
       <r>  -27.6715    1.0000 </r>
       <r>  -27.6338    1.0000 </r>
       <r>  -27.6334    1.0000 </r>
       <r>  -25.9703    1.0000 </r>
       <r>  -25.9699    1.0000 </r>
       <r>  -25.9111    1.0000 </r>
       <r>  -25.8514    1.0000 </r>
       <r>  -25.8492    1.0000 </r>
       <r>  -25.8438    1.0000 </r>
       <r>  -13.2181    1.0000 </r>
       <r>  -12.8176    1.0000 </r>
       <r>  -12.6573    1.0000 </r>
       <r>  -12.4415    1.0000 </r>
       <r>  -12.1772    1.0000 </r>
       <r>  -12.1541    1.0000 </r>
       <r>  -12.0800    1.0000 </r>
       <r>  -11.8976    1.0000 </r>
       <r>  -11.7808    1.0000 </r>
       <r>  -11.0797    1.0000 </r>
       <r>  -10.9670    1.0000 </r>
       <r>  -10.7855    1.0000 </r>
       <r>  -10.7801    1.0000 </r>
       <r>  -10.7786    1.0000 </r>
       <r>  -10.6701    1.0000 </r>
       <r>  -10.5303    1.0000 </r>
       <r>  -10.4121    1.0000 </r>
       <r>  -10.2929    1.0000 </r>
       <r>   -0.6613    1.0000 </r>
       <r>   -0.6577    1.0000 </r>
       <r>   -0.2625    1.0000 </r>
       <r>    0.0020    1.0000 </r>
       <r>    0.1851    1.0000 </r>
       <r>    0.4377    1.0000 </r>
       <r>    0.5843    1.0000 </r>
       <r>    0.7168    1.0000 </r>
       <r>    0.8356    1.0000 </r>
       <r>    0.8780    1.0000 </r>
       <r>    1.2575    1.0000 </r>
       <r>    1.4766    1.0000 </r>
       <r>    1.5753    1.0000 </r>
       <r>    1.6194    1.0000 </r>
       <r>    1.7638    1.0000 </r>
       <r>    1.9525    1.0000 </r>
       <r>    2.1225    1.0000 </r>
       <r>    2.1301    1.0000 </r>
       <r>    2.6362    1.0000 </r>
       <r>    2.6456    1.0000 </r>
       <r>    2.6728    1.0000 </r>
       <r>    2.9196    1.0000 </r>
       <r>    3.0392    1.0000 </r>
       <r>    3.2514    1.0000 </r>
       <r>    3.3474    1.0000 </r>
       <r>    3.5463    1.0000 </r>
       <r>    3.8902    1.0000 </r>
       <r>    6.9725    0.7543 </r>
       <r>    8.2691    0.0000 </r>
       <r>    8.2921    0.0000 </r>
       <r>    8.4005    0.0000 </r>
       <r>    8.4189    0.0000 </r>
       <r>    8.6560    0.0000 </r>
       <r>    8.7199    0.0000 </r>
       <r>    8.9753    0.0000 </r>
       <r>    9.1349    0.0000 </r>
       <r>    9.8069    0.0000 </r>
       <r>   10.8279    0.0000 </r>
       <r>   11.0801    0.0000 </r>
       <r>   11.1417    0.0000 </r>
       <r>   11.2390    0.0000 </r>
       <r>   11.4684    0.0000 </r>
       <r>   11.7833    0.0000 </r>
      </set>
      <set comment="kpoint 8">
       <r>  -51.3616    1.0000 </r>
       <r>  -49.6639    1.0000 </r>
       <r>  -49.6629    1.0000 </r>
       <r>  -29.1408    1.0000 </r>
       <r>  -28.8127    1.0000 </r>
       <r>  -28.7945    1.0000 </r>
       <r>  -27.6569    1.0000 </r>
       <r>  -27.6543    1.0000 </r>
       <r>  -27.6331    1.0000 </r>
       <r>  -25.9190    1.0000 </r>
       <r>  -25.9175    1.0000 </r>
       <r>  -25.9168    1.0000 </r>
       <r>  -25.9163    1.0000 </r>
       <r>  -25.9097    1.0000 </r>
       <r>  -25.8432    1.0000 </r>
       <r>  -12.9781    1.0000 </r>
       <r>  -12.6044    1.0000 </r>
       <r>  -12.5166    1.0000 </r>
       <r>  -12.3785    1.0000 </r>
       <r>  -12.2664    1.0000 </r>
       <r>  -12.2283    1.0000 </r>
       <r>  -12.0856    1.0000 </r>
       <r>  -11.9092    1.0000 </r>
       <r>  -11.8783    1.0000 </r>
       <r>  -11.0770    1.0000 </r>
       <r>  -11.0230    1.0000 </r>
       <r>  -10.8942    1.0000 </r>
       <r>  -10.8537    1.0000 </r>
       <r>  -10.7440    1.0000 </r>
       <r>  -10.7299    1.0000 </r>
       <r>  -10.5726    1.0000 </r>
       <r>  -10.5051    1.0000 </r>
       <r>  -10.3162    1.0000 </r>
       <r>   -0.0522    1.0000 </r>
       <r>   -0.0507    1.0000 </r>
       <r>    0.1578    1.0000 </r>
       <r>    0.1825    1.0000 </r>
       <r>    0.2025    1.0000 </r>
       <r>    0.2027    1.0000 </r>
       <r>    0.4396    1.0000 </r>
       <r>    0.5095    1.0000 </r>
       <r>    0.7036    1.0000 </r>
       <r>    0.7655    1.0000 </r>
       <r>    0.8216    1.0000 </r>
       <r>    0.8663    1.0000 </r>
       <r>    1.0375    1.0000 </r>
       <r>    1.4141    1.0000 </r>
       <r>    1.5458    1.0000 </r>
       <r>    1.5704    1.0000 </r>
       <r>    1.9576    1.0000 </r>
       <r>    2.3322    1.0000 </r>
       <r>    2.5905    1.0000 </r>
       <r>    2.9361    1.0000 </r>
       <r>    3.0615    1.0000 </r>
       <r>    3.1618    1.0000 </r>
       <r>    3.1691    1.0000 </r>
       <r>    3.4192    1.0000 </r>
       <r>    3.5595    1.0000 </r>
       <r>    3.7141    1.0000 </r>
       <r>    3.7168    1.0000 </r>
       <r>    7.7436   -0.0979 </r>
       <r>    7.8702   -0.0103 </r>
       <r>    8.2308   -0.0087 </r>
       <r>    8.4418   -0.0020 </r>
       <r>    8.5145    0.0000 </r>
       <r>    8.5761    0.0000 </r>
       <r>    8.6043    0.0000 </r>
       <r>    8.6847    0.0000 </r>
       <r>    8.7301    0.0000 </r>
       <r>   10.1800    0.0000 </r>
       <r>   10.9880    0.0000 </r>
       <r>   11.1677    0.0000 </r>
       <r>   11.1801    0.0000 </r>
       <r>   11.3402    0.0000 </r>
       <r>   11.4005    0.0000 </r>
       <r>   11.4633    0.0000 </r>
      </set>
      <set comment="kpoint 9">
       <r>  -51.3613    1.0000 </r>
       <r>  -49.6630    1.0000 </r>
       <r>  -49.6620    1.0000 </r>
       <r>  -29.1361    1.0000 </r>
       <r>  -28.8076    1.0000 </r>
       <r>  -28.7896    1.0000 </r>
       <r>  -27.6729    1.0000 </r>
       <r>  -27.6561    1.0000 </r>
       <r>  -27.6330    1.0000 </r>
       <r>  -25.9694    1.0000 </r>
       <r>  -25.9681    1.0000 </r>
       <r>  -25.9175    1.0000 </r>
       <r>  -25.9148    1.0000 </r>
       <r>  -25.9084    1.0000 </r>
       <r>  -25.8416    1.0000 </r>
       <r>  -12.9445    1.0000 </r>
       <r>  -12.4092    1.0000 </r>
       <r>  -12.3992    1.0000 </r>
       <r>  -12.2952    1.0000 </r>
       <r>  -12.1196    1.0000 </r>
       <r>  -12.0503    1.0000 </r>
       <r>  -12.0339    1.0000 </r>
       <r>  -11.9454    1.0000 </r>
       <r>  -11.7693    1.0000 </r>
       <r>  -11.0850    1.0000 </r>
       <r>  -11.0719    1.0000 </r>
       <r>  -10.9174    1.0000 </r>
       <r>  -10.8369    1.0000 </r>
       <r>  -10.7989    1.0000 </r>
       <r>  -10.7393    1.0000 </r>
       <r>  -10.6648    1.0000 </r>
       <r>  -10.4005    1.0000 </r>
       <r>  -10.3246    1.0000 </r>
       <r>   -0.6658    1.0000 </r>
       <r>   -0.6607    1.0000 </r>
       <r>   -0.1899    1.0000 </r>
       <r>   -0.0214    1.0000 </r>
       <r>   -0.0088    1.0000 </r>
       <r>    0.0694    1.0000 </r>
       <r>    0.2460    1.0000 </r>
       <r>    0.3209    1.0000 </r>
       <r>    0.4651    1.0000 </r>
       <r>    0.5005    1.0000 </r>
       <r>    0.6812    1.0000 </r>
       <r>    0.8433    1.0000 </r>
       <r>    0.8646    1.0000 </r>
       <r>    1.1176    1.0000 </r>
       <r>    1.3649    1.0000 </r>
       <r>    1.5879    1.0000 </r>
       <r>    1.7367    1.0000 </r>
       <r>    2.3024    1.0000 </r>
       <r>    2.5402    1.0000 </r>
       <r>    2.8481    1.0000 </r>
       <r>    3.2514    1.0000 </r>
       <r>    3.2759    1.0000 </r>
       <r>    3.3217    1.0000 </r>
       <r>    3.5507    1.0000 </r>
       <r>    3.5664    1.0000 </r>
       <r>    3.8730    1.0000 </r>
       <r>    3.8748    1.0000 </r>
       <r>    7.8460   -0.0650 </r>
       <r>    8.4447    0.0000 </r>
       <r>    8.6009    0.0000 </r>
       <r>    8.6310    0.0000 </r>
       <r>    8.7944    0.0000 </r>
       <r>    9.0154    0.0000 </r>
       <r>    9.0326    0.0000 </r>
       <r>    9.1605    0.0000 </r>
       <r>    9.2556    0.0000 </r>
       <r>   10.2667    0.0000 </r>
       <r>   11.1751    0.0000 </r>
       <r>   11.2698    0.0000 </r>
       <r>   11.3606    0.0000 </r>
       <r>   11.4254    0.0000 </r>
       <r>   11.5470    0.0000 </r>
       <r>   11.6524    0.0000 </r>
      </set>
      <set comment="kpoint 10">
       <r>  -51.3610    1.0000 </r>
       <r>  -49.6622    1.0000 </r>
       <r>  -49.6612    1.0000 </r>
       <r>  -29.1312    1.0000 </r>
       <r>  -28.8014    1.0000 </r>
       <r>  -28.7852    1.0000 </r>
       <r>  -27.6744    1.0000 </r>
       <r>  -27.6738    1.0000 </r>
       <r>  -27.6323    1.0000 </r>
       <r>  -25.9692    1.0000 </r>
       <r>  -25.9689    1.0000 </r>
       <r>  -25.9664    1.0000 </r>
       <r>  -25.9663    1.0000 </r>
       <r>  -25.9064    1.0000 </r>
       <r>  -25.8398    1.0000 </r>
       <r>  -12.7293    1.0000 </r>
       <r>  -12.2330    1.0000 </r>
       <r>  -12.1877    1.0000 </r>
       <r>  -12.1126    1.0000 </r>
       <r>  -12.0678    1.0000 </r>
       <r>  -11.9408    1.0000 </r>
       <r>  -11.9260    1.0000 </r>
       <r>  -11.9019    1.0000 </r>
       <r>  -11.7957    1.0000 </r>
       <r>  -11.1702    1.0000 </r>
       <r>  -11.0538    1.0000 </r>
       <r>  -10.9928    1.0000 </r>
       <r>  -10.8857    1.0000 </r>
       <r>  -10.8837    1.0000 </r>
       <r>  -10.8310    1.0000 </r>
       <r>  -10.7397    1.0000 </r>
       <r>  -10.3615    1.0000 </r>
       <r>  -10.3351    1.0000 </r>
       <r>   -0.7754    1.0000 </r>
       <r>   -0.7668    1.0000 </r>
       <r>   -0.5667    1.0000 </r>
       <r>   -0.5115    1.0000 </r>
       <r>   -0.5028    1.0000 </r>
       <r>   -0.1763    1.0000 </r>
       <r>    0.0961    1.0000 </r>
       <r>    0.1698    1.0000 </r>
       <r>    0.1977    1.0000 </r>
       <r>    0.3493    1.0000 </r>
       <r>    0.5394    1.0000 </r>
       <r>    0.5605    1.0000 </r>
       <r>    0.8245    1.0000 </r>
       <r>    0.8524    1.0000 </r>
       <r>    0.9737    1.0000 </r>
       <r>    1.5730    1.0000 </r>
       <r>    1.6261    1.0000 </r>
       <r>    2.4367    1.0000 </r>
       <r>    2.4976    1.0000 </r>
       <r>    2.7200    1.0000 </r>
       <r>    3.5338    1.0000 </r>
       <r>    3.5756    1.0000 </r>
       <r>    3.6447    1.0000 </r>
       <r>    3.6633    1.0000 </r>
       <r>    3.7921    1.0000 </r>
       <r>    3.8563    1.0000 </r>
       <r>    4.2006    1.0000 </r>
       <r>    8.4554    0.0000 </r>
       <r>    8.4737    0.0000 </r>
       <r>    8.8516    0.0000 </r>
       <r>    9.0708    0.0000 </r>
       <r>    9.0883    0.0000 </r>
       <r>    9.3185    0.0000 </r>
       <r>    9.3498    0.0000 </r>
       <r>    9.5217    0.0000 </r>
       <r>    9.6572    0.0000 </r>
       <r>   10.3549    0.0000 </r>
       <r>   10.8523    0.0000 </r>
       <r>   11.0516    0.0000 </r>
       <r>   11.1440    0.0000 </r>
       <r>   11.1678    0.0000 </r>
       <r>   11.3397    0.0000 </r>
       <r>   11.4066    0.0000 </r>
      </set>
      <set comment="kpoint 11">
       <r>  -51.3629    1.0000 </r>
       <r>  -49.6669    1.0000 </r>
       <r>  -49.6659    1.0000 </r>
       <r>  -29.1576    1.0000 </r>
       <r>  -28.8278    1.0000 </r>
       <r>  -28.8137    1.0000 </r>
       <r>  -27.6315    1.0000 </r>
       <r>  -27.6253    1.0000 </r>
       <r>  -27.6253    1.0000 </r>
       <r>  -25.9119    1.0000 </r>
       <r>  -25.8495    1.0000 </r>
       <r>  -25.8265    1.0000 </r>
       <r>  -25.8265    1.0000 </r>
       <r>  -25.8242    1.0000 </r>
       <r>  -25.8242    1.0000 </r>
       <r>  -13.4139    1.0000 </r>
       <r>  -13.2493    1.0000 </r>
       <r>  -12.8567    1.0000 </r>
       <r>  -12.7358    1.0000 </r>
       <r>  -12.7208    1.0000 </r>
       <r>  -12.4975    1.0000 </r>
       <r>  -12.0840    1.0000 </r>
       <r>  -11.7474    1.0000 </r>
       <r>  -11.7042    1.0000 </r>
       <r>  -11.1219    1.0000 </r>
       <r>  -11.1219    1.0000 </r>
       <r>  -10.9164    1.0000 </r>
       <r>  -10.7959    1.0000 </r>
       <r>  -10.7959    1.0000 </r>
       <r>  -10.7604    1.0000 </r>
       <r>  -10.7604    1.0000 </r>
       <r>  -10.6887    1.0000 </r>
       <r>  -10.3006    1.0000 </r>
       <r>   -0.2789    1.0000 </r>
       <r>    1.0061    1.0000 </r>
       <r>    1.4715    1.0000 </r>
       <r>    1.4715    1.0000 </r>
       <r>    1.4826    1.0000 </r>
       <r>    1.6182    1.0000 </r>
       <r>    1.6182    1.0000 </r>
       <r>    1.6221    1.0000 </r>
       <r>    1.6933    1.0000 </r>
       <r>    1.6933    1.0000 </r>
       <r>    1.8180    1.0000 </r>
       <r>    1.8180    1.0000 </r>
       <r>    2.1255    1.0000 </r>
       <r>    2.4105    1.0000 </r>
       <r>    2.4105    1.0000 </r>
       <r>    2.4981    1.0000 </r>
       <r>    2.5028    1.0000 </r>
       <r>    2.7548    1.0000 </r>
       <r>    2.7548    1.0000 </r>
       <r>    2.9954    1.0000 </r>
       <r>    3.1133    1.0000 </r>
       <r>    3.1133    1.0000 </r>
       <r>    3.2587    1.0000 </r>
       <r>    3.2587    1.0000 </r>
       <r>    3.3014    1.0000 </r>
       <r>    3.8818    1.0000 </r>
       <r>    3.8818    1.0000 </r>
       <r>    6.1251    1.0000 </r>
       <r>    6.2511    1.0000 </r>
       <r>    6.6294    1.0000 </r>
       <r>    6.6294    1.0000 </r>
       <r>    6.7975    1.1380 </r>
       <r>    7.3304    0.0000 </r>
       <r>    7.3304    0.0000 </r>
       <r>    8.5263    0.0000 </r>
       <r>    8.5263    0.0000 </r>
       <r>    8.9742    0.0000 </r>
       <r>    9.5203    0.0000 </r>
       <r>    9.5741    0.0000 </r>
       <r>    9.6113    0.0000 </r>
       <r>    9.7547    0.0000 </r>
       <r>   10.0001    0.0000 </r>
       <r>   10.0484    0.0000 </r>
      </set>
      <set comment="kpoint 12">
       <r>  -51.3627    1.0000 </r>
       <r>  -49.6665    1.0000 </r>
       <r>  -49.6654    1.0000 </r>
       <r>  -29.1550    1.0000 </r>
       <r>  -28.8259    1.0000 </r>
       <r>  -28.8105    1.0000 </r>
       <r>  -27.6344    1.0000 </r>
       <r>  -27.6321    1.0000 </r>
       <r>  -27.6249    1.0000 </r>
       <r>  -25.9118    1.0000 </r>
       <r>  -25.8556    1.0000 </r>
       <r>  -25.8543    1.0000 </r>
       <r>  -25.8485    1.0000 </r>
       <r>  -25.8255    1.0000 </r>
       <r>  -25.8233    1.0000 </r>
       <r>  -13.3037    1.0000 </r>
       <r>  -13.2034    1.0000 </r>
       <r>  -12.8379    1.0000 </r>
       <r>  -12.6540    1.0000 </r>
       <r>  -12.6390    1.0000 </r>
       <r>  -12.5078    1.0000 </r>
       <r>  -12.1118    1.0000 </r>
       <r>  -11.8500    1.0000 </r>
       <r>  -11.7270    1.0000 </r>
       <r>  -11.1157    1.0000 </r>
       <r>  -11.0277    1.0000 </r>
       <r>  -10.9279    1.0000 </r>
       <r>  -10.7899    1.0000 </r>
       <r>  -10.7536    1.0000 </r>
       <r>  -10.7221    1.0000 </r>
       <r>  -10.6695    1.0000 </r>
       <r>  -10.6549    1.0000 </r>
       <r>  -10.3262    1.0000 </r>
       <r>   -0.2852    1.0000 </r>
       <r>    0.6829    1.0000 </r>
       <r>    0.9506    1.0000 </r>
       <r>    1.2826    1.0000 </r>
       <r>    1.3059    1.0000 </r>
       <r>    1.3938    1.0000 </r>
       <r>    1.4112    1.0000 </r>
       <r>    1.5286    1.0000 </r>
       <r>    1.6181    1.0000 </r>
       <r>    1.6749    1.0000 </r>
       <r>    1.7409    1.0000 </r>
       <r>    1.8260    1.0000 </r>
       <r>    1.9651    1.0000 </r>
       <r>    2.2619    1.0000 </r>
       <r>    2.3231    1.0000 </r>
       <r>    2.5319    1.0000 </r>
       <r>    2.5711    1.0000 </r>
       <r>    2.6280    1.0000 </r>
       <r>    2.6896    1.0000 </r>
       <r>    2.7384    1.0000 </r>
       <r>    2.9414    1.0000 </r>
       <r>    2.9836    1.0000 </r>
       <r>    3.1401    1.0000 </r>
       <r>    3.1533    1.0000 </r>
       <r>    3.3503    1.0000 </r>
       <r>    3.4860    1.0000 </r>
       <r>    3.7038    1.0000 </r>
       <r>    6.6242    1.0000 </r>
       <r>    6.6723    1.0047 </r>
       <r>    6.7707    0.9033 </r>
       <r>    6.9811    0.7641 </r>
       <r>    7.1401    0.3610 </r>
       <r>    7.3632    0.0000 </r>
       <r>    7.5023    0.0000 </r>
       <r>    8.5337    0.0000 </r>
       <r>    8.5795    0.0000 </r>
       <r>    9.2569    0.0000 </r>
       <r>    9.8034    0.0000 </r>
       <r>    9.8588    0.0000 </r>
       <r>    9.9771    0.0000 </r>
       <r>    9.9860    0.0000 </r>
       <r>   10.2867    0.0000 </r>
       <r>   10.3269    0.0000 </r>
      </set>
      <set comment="kpoint 13">
       <r>  -51.3623    1.0000 </r>
       <r>  -49.6654    1.0000 </r>
       <r>  -49.6644    1.0000 </r>
       <r>  -29.1493    1.0000 </r>
       <r>  -28.8218    1.0000 </r>
       <r>  -28.8033    1.0000 </r>
       <r>  -27.6547    1.0000 </r>
       <r>  -27.6333    1.0000 </r>
       <r>  -27.6240    1.0000 </r>
       <r>  -25.9198    1.0000 </r>
       <r>  -25.9197    1.0000 </r>
       <r>  -25.9116    1.0000 </r>
       <r>  -25.8470    1.0000 </r>
       <r>  -25.8233    1.0000 </r>
       <r>  -25.8211    1.0000 </r>
       <r>  -13.2356    1.0000 </r>
       <r>  -13.1100    1.0000 </r>
       <r>  -12.7982    1.0000 </r>
       <r>  -12.5483    1.0000 </r>
       <r>  -12.4070    1.0000 </r>
       <r>  -12.3166    1.0000 </r>
       <r>  -12.1025    1.0000 </r>
       <r>  -12.0202    1.0000 </r>
       <r>  -11.7475    1.0000 </r>
       <r>  -11.1016    1.0000 </r>
       <r>  -10.9316    1.0000 </r>
       <r>  -10.8549    1.0000 </r>
       <r>  -10.7763    1.0000 </r>
       <r>  -10.7382    1.0000 </r>
       <r>  -10.6990    1.0000 </r>
       <r>  -10.5396    1.0000 </r>
       <r>  -10.4703    1.0000 </r>
       <r>  -10.3501    1.0000 </r>
       <r>   -0.3079    1.0000 </r>
       <r>   -0.0664    1.0000 </r>
       <r>    0.2811    1.0000 </r>
       <r>    0.3102    1.0000 </r>
       <r>    0.6424    1.0000 </r>
       <r>    1.1321    1.0000 </r>
       <r>    1.2001    1.0000 </r>
       <r>    1.2745    1.0000 </r>
       <r>    1.2998    1.0000 </r>
       <r>    1.4277    1.0000 </r>
       <r>    1.5184    1.0000 </r>
       <r>    1.6545    1.0000 </r>
       <r>    1.7785    1.0000 </r>
       <r>    1.9292    1.0000 </r>
       <r>    2.0800    1.0000 </r>
       <r>    2.1935    1.0000 </r>
       <r>    2.2165    1.0000 </r>
       <r>    2.2824    1.0000 </r>
       <r>    2.6016    1.0000 </r>
       <r>    2.7274    1.0000 </r>
       <r>    2.8661    1.0000 </r>
       <r>    2.9360    1.0000 </r>
       <r>    3.0166    1.0000 </r>
       <r>    3.2183    1.0000 </r>
       <r>    3.2409    1.0000 </r>
       <r>    3.4299    1.0000 </r>
       <r>    3.6770    1.0000 </r>
       <r>    6.7388    1.0080 </r>
       <r>    7.3988    0.0856 </r>
       <r>    7.7161   -0.0290 </r>
       <r>    7.7798   -0.0638 </r>
       <r>    7.8052   -0.0063 </r>
       <r>    7.8470    0.0000 </r>
       <r>    8.0677    0.0000 </r>
       <r>    8.5505    0.0000 </r>
       <r>    8.8603    0.0000 </r>
       <r>    9.4425    0.0000 </r>
       <r>   10.4144    0.0000 </r>
       <r>   10.4565    0.0000 </r>
       <r>   10.5413    0.0000 </r>
       <r>   10.6584    0.0000 </r>
       <r>   10.8425    0.0000 </r>
       <r>   10.9193    0.0000 </r>
      </set>
      <set comment="kpoint 14">
       <r>  -51.3619    1.0000 </r>
       <r>  -49.6645    1.0000 </r>
       <r>  -49.6635    1.0000 </r>
       <r>  -29.1448    1.0000 </r>
       <r>  -28.8186    1.0000 </r>
       <r>  -28.7975    1.0000 </r>
       <r>  -27.6708    1.0000 </r>
       <r>  -27.6342    1.0000 </r>
       <r>  -27.6233    1.0000 </r>
       <r>  -25.9713    1.0000 </r>
       <r>  -25.9702    1.0000 </r>
       <r>  -25.9115    1.0000 </r>
       <r>  -25.8456    1.0000 </r>
       <r>  -25.8215    1.0000 </r>
       <r>  -25.8193    1.0000 </r>
       <r>  -13.3133    1.0000 </r>
       <r>  -13.0464    1.0000 </r>
       <r>  -12.7296    1.0000 </r>
       <r>  -12.5497    1.0000 </r>
       <r>  -12.2305    1.0000 </r>
       <r>  -12.1610    1.0000 </r>
       <r>  -12.0214    1.0000 </r>
       <r>  -11.8996    1.0000 </r>
       <r>  -11.8077    1.0000 </r>
       <r>  -11.0902    1.0000 </r>
       <r>  -10.9042    1.0000 </r>
       <r>  -10.7653    1.0000 </r>
       <r>  -10.7334    1.0000 </r>
       <r>  -10.7258    1.0000 </r>
       <r>  -10.6847    1.0000 </r>
       <r>  -10.4536    1.0000 </r>
       <r>  -10.4144    1.0000 </r>
       <r>  -10.2751    1.0000 </r>
       <r>   -0.6751    1.0000 </r>
       <r>   -0.6561    1.0000 </r>
       <r>   -0.4369    1.0000 </r>
       <r>   -0.2681    1.0000 </r>
       <r>    0.3641    1.0000 </r>
       <r>    0.7065    1.0000 </r>
       <r>    1.0753    1.0000 </r>
       <r>    1.0995    1.0000 </r>
       <r>    1.1677    1.0000 </r>
       <r>    1.1770    1.0000 </r>
       <r>    1.3189    1.0000 </r>
       <r>    1.5711    1.0000 </r>
       <r>    1.6119    1.0000 </r>
       <r>    1.7285    1.0000 </r>
       <r>    1.9053    1.0000 </r>
       <r>    2.1125    1.0000 </r>
       <r>    2.1181    1.0000 </r>
       <r>    2.2775    1.0000 </r>
       <r>    2.6053    1.0000 </r>
       <r>    2.6249    1.0000 </r>
       <r>    2.6821    1.0000 </r>
       <r>    2.7900    1.0000 </r>
       <r>    2.9350    1.0000 </r>
       <r>    3.2447    1.0000 </r>
       <r>    3.2695    1.0000 </r>
       <r>    3.2883    1.0000 </r>
       <r>    3.9473    1.0000 </r>
       <r>    6.8134    1.0480 </r>
       <r>    7.4611    0.0000 </r>
       <r>    8.3401    0.0000 </r>
       <r>    8.4079    0.0000 </r>
       <r>    8.5495    0.0000 </r>
[...]
       <r>    9.1413    0.0000 </r>
       <r>    9.4516    0.0000 </r>
       <r>   10.5555    0.0000 </r>
       <r>   10.9585    0.0000 </r>
       <r>   11.3159    0.0000 </r>
       <r>   11.3848    0.0000 </r>
       <r>   11.5157    0.0000 </r>
       <r>   11.5310    0.0000 </r>
       <r>   11.7087    0.0000 </r>
      </set>
      <set comment="kpoint 20">
       <r>  -51.3610    1.0000 </r>
       <r>  -49.6622    1.0000 </r>
       <r>  -49.6612    1.0000 </r>
       <r>  -29.1312    1.0000 </r>
       <r>  -28.8015    1.0000 </r>
       <r>  -28.7852    1.0000 </r>
       <r>  -27.6744    1.0000 </r>
       <r>  -27.6738    1.0000 </r>
       <r>  -27.6323    1.0000 </r>
       <r>  -25.9692    1.0000 </r>
       <r>  -25.9689    1.0000 </r>
       <r>  -25.9664    1.0000 </r>
       <r>  -25.9663    1.0000 </r>
       <r>  -25.9057    1.0000 </r>
       <r>  -25.8405    1.0000 </r>
       <r>  -12.6751    1.0000 </r>
       <r>  -12.3055    1.0000 </r>
       <r>  -12.2112    1.0000 </r>
       <r>  -12.1697    1.0000 </r>
       <r>  -12.0554    1.0000 </r>
       <r>  -11.9839    1.0000 </r>
       <r>  -11.8983    1.0000 </r>
       <r>  -11.8151    1.0000 </r>
       <r>  -11.7661    1.0000 </r>
       <r>  -11.1621    1.0000 </r>
       <r>  -11.0800    1.0000 </r>
       <r>  -11.0350    1.0000 </r>
       <r>  -10.9515    1.0000 </r>
       <r>  -10.8056    1.0000 </r>
       <r>  -10.8028    1.0000 </r>
       <r>  -10.7148    1.0000 </r>
       <r>  -10.3724    1.0000 </r>
       <r>  -10.3414    1.0000 </r>
       <r>   -0.7754    1.0000 </r>
       <r>   -0.7668    1.0000 </r>
       <r>   -0.5749    1.0000 </r>
       <r>   -0.5411    1.0000 </r>
       <r>   -0.4866    1.0000 </r>
       <r>   -0.2229    1.0000 </r>
       <r>   -0.1379    1.0000 </r>
       <r>    0.1172    1.0000 </r>
       <r>    0.1726    1.0000 </r>
       <r>    0.4291    1.0000 </r>
       <r>    0.6311    1.0000 </r>
       <r>    0.6355    1.0000 </r>
       <r>    0.8669    1.0000 </r>
       <r>    0.9754    1.0000 </r>
       <r>    1.3362    1.0000 </r>
       <r>    1.4781    1.0000 </r>
       <r>    1.4801    1.0000 </r>
       <r>    2.2841    1.0000 </r>
       <r>    2.7456    1.0000 </r>
       <r>    2.7713    1.0000 </r>
       <r>    3.2230    1.0000 </r>
       <r>    3.2597    1.0000 </r>
       <r>    3.6590    1.0000 </r>
       <r>    3.6777    1.0000 </r>
       <r>    3.9259    1.0000 </r>
       <r>    3.9702    1.0000 </r>
       <r>    4.1984    1.0000 </r>
       <r>    8.5006    0.0000 </r>
       <r>    8.5175    0.0000 </r>
       <r>    8.8528    0.0000 </r>
       <r>    8.8893    0.0000 </r>
       <r>    8.9045    0.0000 </r>
       <r>    9.4947    0.0000 </r>
       <r>    9.5245    0.0000 </r>
       <r>    9.5478    0.0000 </r>
       <r>    9.6475    0.0000 </r>
       <r>   10.6433    0.0000 </r>
       <r>   10.7981    0.0000 </r>
       <r>   10.8075    0.0000 </r>
       <r>   10.8973    0.0000 </r>
       <r>   11.0915    0.0000 </r>
       <r>   11.6550    0.0000 </r>
       <r>   11.8160    0.0000 </r>
      </set>
     </set>
    </set>
   </array>
  </eigenvalues>
  <separator name="orbital magnetization" >
   <v name="MAGDIPOLOUT">      0.00000000      0.00000000      0.00000000</v>
  </separator>
  <dos>
   <i name="efermi">      7.15945028 </i>
   <total>
    <array>
     <dimension dim="1">gridpoints</dimension>
     <dimension dim="2">spin</dimension>
     <field>energy</field>
     <field>total</field>
     <field>integrated</field>
     <set>
      <set comment="spin 1">
       <r>   -54.5218     0.0000     0.0000 </r>
       <r>   -54.2902     0.0000     0.0000 </r>
       <r>   -54.0585     0.0000     0.0000 </r>
       <r>   -53.8269     0.0000     0.0000 </r>
       <r>   -53.5952     0.0000     0.0000 </r>
       <r>   -53.3636     0.0000     0.0000 </r>
       <r>   -53.1319     0.0000     0.0000 </r>
       <r>   -52.9002     0.0000     0.0000 </r>
       <r>   -52.6686     0.0000     0.0000 </r>
       <r>   -52.4369     0.0000     0.0000 </r>
       <r>   -52.2053     0.0000     0.0000 </r>
       <r>   -51.9736     0.0000     0.0000 </r>
       <r>   -51.7420     0.0000     0.0000 </r>
       <r>   -51.5103     0.0000     0.0000 </r>
       <r>   -51.2787     0.0000     2.0000 </r>
       <r>   -51.0470     0.0000     2.0000 </r>
       <r>   -50.8153     0.0000     2.0000 </r>
       <r>   -50.5837     0.0000     2.0000 </r>
       <r>   -50.3520     0.0000     2.0000 </r>
       <r>   -50.1204     0.0000     2.0000 </r>
       <r>   -49.8887     0.0000     2.0000 </r>
       <r>   -49.6571     0.0000     6.0000 </r>
       <r>   -49.4254     0.0000     6.0000 </r>
       <r>   -49.1938     0.0000     6.0000 </r>
       <r>   -48.9621     0.0000     6.0000 </r>
       <r>   -48.7304     0.0000     6.0000 </r>
       <r>   -48.4988     0.0000     6.0000 </r>
       <r>   -48.2671     0.0000     6.0000 </r>
       <r>   -48.0355     0.0000     6.0000 </r>
       <r>   -47.8038     0.0000     6.0000 </r>
       <r>   -47.5722     0.0000     6.0000 </r>
       <r>   -47.3405     0.0000     6.0000 </r>
       <r>   -47.1089     0.0000     6.0000 </r>
       <r>   -46.8772     0.0000     6.0000 </r>
       <r>   -46.6455     0.0000     6.0000 </r>
       <r>   -46.4139     0.0000     6.0000 </r>
       <r>   -46.1822     0.0000     6.0000 </r>
       <r>   -45.9506     0.0000     6.0000 </r>
       <r>   -45.7189     0.0000     6.0000 </r>
       <r>   -45.4873     0.0000     6.0000 </r>
       <r>   -45.2556     0.0000     6.0000 </r>
       <r>   -45.0239     0.0000     6.0000 </r>
       <r>   -44.7923     0.0000     6.0000 </r>
       <r>   -44.5606     0.0000     6.0000 </r>
       <r>   -44.3290     0.0000     6.0000 </r>
       <r>   -44.0973     0.0000     6.0000 </r>
       <r>   -43.8657     0.0000     6.0000 </r>
       <r>   -43.6340     0.0000     6.0000 </r>
       <r>   -43.4024     0.0000     6.0000 </r>
       <r>   -43.1707     0.0000     6.0000 </r>
       <r>   -42.9390     0.0000     6.0000 </r>
       <r>   -42.7074     0.0000     6.0000 </r>
       <r>   -42.4757     0.0000     6.0000 </r>
       <r>   -42.2441     0.0000     6.0000 </r>
       <r>   -42.0124     0.0000     6.0000 </r>
       <r>   -41.7808     0.0000     6.0000 </r>
       <r>   -41.5491     0.0000     6.0000 </r>
       <r>   -41.3175     0.0000     6.0000 </r>
       <r>   -41.0858     0.0000     6.0000 </r>
       <r>   -40.8541     0.0000     6.0000 </r>
       <r>   -40.6225     0.0000     6.0000 </r>
       <r>   -40.3908     0.0000     6.0000 </r>
       <r>   -40.1592     0.0000     6.0000 </r>
       <r>   -39.9275     0.0000     6.0000 </r>
       <r>   -39.6959     0.0000     6.0000 </r>
       <r>   -39.4642     0.0000     6.0000 </r>
       <r>   -39.2326     0.0000     6.0000 </r>
       <r>   -39.0009     0.0000     6.0000 </r>
       <r>   -38.7692     0.0000     6.0000 </r>
       <r>   -38.5376     0.0000     6.0000 </r>
       <r>   -38.3059     0.0000     6.0000 </r>
       <r>   -38.0743     0.0000     6.0000 </r>
       <r>   -37.8426     0.0000     6.0000 </r>
       <r>   -37.6110     0.0000     6.0000 </r>
       <r>   -37.3793     0.0000     6.0000 </r>
       <r>   -37.1477     0.0000     6.0000 </r>
       <r>   -36.9160     0.0000     6.0000 </r>
       <r>   -36.6843     0.0000     6.0000 </r>
       <r>   -36.4527     0.0000     6.0000 </r>
       <r>   -36.2210     0.0000     6.0000 </r>
       <r>   -35.9894     0.0000     6.0000 </r>
       <r>   -35.7577     0.0000     6.0000 </r>
       <r>   -35.5261     0.0000     6.0000 </r>
       <r>   -35.2944     0.0000     6.0000 </r>
       <r>   -35.0627     0.0000     6.0000 </r>
       <r>   -34.8311     0.0000     6.0000 </r>
       <r>   -34.5994     0.0000     6.0000 </r>
       <r>   -34.3678     0.0000     6.0000 </r>
       <r>   -34.1361     0.0000     6.0000 </r>
       <r>   -33.9045     0.0000     6.0000 </r>
       <r>   -33.6728     0.0000     6.0000 </r>
       <r>   -33.4412     0.0000     6.0000 </r>
       <r>   -33.2095     0.0000     6.0000 </r>
       <r>   -32.9778     0.0000     6.0000 </r>
       <r>   -32.7462     0.0000     6.0000 </r>
       <r>   -32.5145     0.0000     6.0000 </r>
       <r>   -32.2829     0.0000     6.0000 </r>
       <r>   -32.0512     0.0000     6.0000 </r>
       <r>   -31.8196     0.0000     6.0000 </r>
       <r>   -31.5879     0.0000     6.0000 </r>
       <r>   -31.3563     0.0000     6.0000 </r>
       <r>   -31.1246     0.0000     6.0000 </r>
       <r>   -30.8929     0.0000     6.0000 </r>
       <r>   -30.6613     0.0000     6.0000 </r>
       <r>   -30.4296     0.0000     6.0000 </r>
       <r>   -30.1980     0.0000     6.0000 </r>
       <r>   -29.9663     0.0000     6.0000 </r>
       <r>   -29.7347     0.0000     6.0000 </r>
       <r>   -29.5030     0.0000     6.0000 </r>
       <r>   -29.2714     0.0000     6.0000 </r>
       <r>   -29.0397     0.0000     8.0000 </r>
       <r>   -28.8080   100.6936     9.8941 </r>
       <r>   -28.5764     0.0000    12.0000 </r>
       <r>   -28.3447     0.0000    12.0000 </r>
       <r>   -28.1131     0.0000    12.0000 </r>
       <r>   -27.8814     0.0000    12.0000 </r>
       <r>   -27.6498    49.9021    14.0323 </r>
       <r>   -27.4181     0.0000    18.0000 </r>
       <r>   -27.1865     0.0000    18.0000 </r>
       <r>   -26.9548     0.0000    18.0000 </r>
       <r>   -26.7231     0.0000    18.0000 </r>
       <r>   -26.4915     0.0000    18.0000 </r>
       <r>   -26.2598     0.0000    18.0000 </r>
       <r>   -26.0282     0.0000    18.0000 </r>
       <r>   -25.7965     0.0000    30.0000 </r>
       <r>   -25.5649     0.0000    30.0000 </r>
       <r>   -25.3332     0.0000    30.0000 </r>
       <r>   -25.1015     0.0000    30.0000 </r>
       <r>   -24.8699     0.0000    30.0000 </r>
       <r>   -24.6382     0.0000    30.0000 </r>
       <r>   -24.4066     0.0000    30.0000 </r>
       <r>   -24.1749     0.0000    30.0000 </r>
       <r>   -23.9433     0.0000    30.0000 </r>
       <r>   -23.7116     0.0000    30.0000 </r>
       <r>   -23.4800     0.0000    30.0000 </r>
       <r>   -23.2483     0.0000    30.0000 </r>
       <r>   -23.0166     0.0000    30.0000 </r>
       <r>   -22.7850     0.0000    30.0000 </r>
       <r>   -22.5533     0.0000    30.0000 </r>
       <r>   -22.3217     0.0000    30.0000 </r>
       <r>   -22.0900     0.0000    30.0000 </r>
       <r>   -21.8584     0.0000    30.0000 </r>
       <r>   -21.6267     0.0000    30.0000 </r>
       <r>   -21.3951     0.0000    30.0000 </r>
       <r>   -21.1634     0.0000    30.0000 </r>
       <r>   -20.9317     0.0000    30.0000 </r>
       <r>   -20.7001     0.0000    30.0000 </r>
       <r>   -20.4684     0.0000    30.0000 </r>
       <r>   -20.2368     0.0000    30.0000 </r>
       <r>   -20.0051     0.0000    30.0000 </r>
       <r>   -19.7735     0.0000    30.0000 </r>
       <r>   -19.5418     0.0000    30.0000 </r>
       <r>   -19.3102     0.0000    30.0000 </r>
       <r>   -19.0785     0.0000    30.0000 </r>
       <r>   -18.8468     0.0000    30.0000 </r>
       <r>   -18.6152     0.0000    30.0000 </r>
       <r>   -18.3835     0.0000    30.0000 </r>
       <r>   -18.1519     0.0000    30.0000 </r>
       <r>   -17.9202     0.0000    30.0000 </r>
       <r>   -17.6886     0.0000    30.0000 </r>
       <r>   -17.4569     0.0000    30.0000 </r>
       <r>   -17.2253     0.0000    30.0000 </r>
       <r>   -16.9936     0.0000    30.0000 </r>
       <r>   -16.7619     0.0000    30.0000 </r>
       <r>   -16.5303     0.0000    30.0000 </r>
       <r>   -16.2986     0.0000    30.0000 </r>
       <r>   -16.0670     0.0000    30.0000 </r>
       <r>   -15.8353     0.0000    30.0000 </r>
       <r>   -15.6037     0.0000    30.0000 </r>
       <r>   -15.3720     0.0000    30.0000 </r>
       <r>   -15.1403     0.0000    30.0000 </r>
       <r>   -14.9087     0.0000    30.0000 </r>
       <r>   -14.6770     0.0000    30.0000 </r>
       <r>   -14.4454     0.0000    30.0000 </r>
       <r>   -14.2137     0.0000    30.0000 </r>
       <r>   -13.9821     0.0000    30.0000 </r>
       <r>   -13.7504     0.0000    30.0000 </r>
       <r>   -13.5188     0.0000    30.0000 </r>
       <r>   -13.2871     4.1994    30.1682 </r>
       <r>   -13.0554     5.8981    31.7930 </r>
       <r>   -12.8238     8.2905    33.2496 </r>
       <r>   -12.5921     8.5368    35.3431 </r>
       <r>   -12.3605    12.0730    38.1820 </r>
       <r>   -12.1288    12.5150    41.1059 </r>
       <r>   -11.8972     8.5365    45.6210 </r>
       <r>   -11.6655     0.0000    48.0000 </r>
       <r>   -11.4339     0.0000    48.0000 </r>
       <r>   -11.2022     0.0000    48.0000 </r>
       <r>   -10.9705    24.6019    51.5423 </r>
       <r>   -10.7389    52.4567    57.5557 </r>
       <r>   -10.5072    13.8376    62.3892 </r>
       <r>   -10.2756     7.3377    65.9797 </r>
       <r>   -10.0439     0.0000    66.0000 </r>
       <r>    -9.8123     0.0000    66.0000 </r>
       <r>    -9.5806     0.0000    66.0000 </r>
       <r>    -9.3490     0.0000    66.0000 </r>
       <r>    -9.1173     0.0000    66.0000 </r>
       <r>    -8.8856     0.0000    66.0000 </r>
       <r>    -8.6540     0.0000    66.0000 </r>
       <r>    -8.4223     0.0000    66.0000 </r>
       <r>    -8.1907     0.0000    66.0000 </r>
       <r>    -7.9590     0.0000    66.0000 </r>
       <r>    -7.7274     0.0000    66.0000 </r>
       <r>    -7.4957     0.0000    66.0000 </r>
       <r>    -7.2641     0.0000    66.0000 </r>
       <r>    -7.0324     0.0000    66.0000 </r>
       <r>    -6.8007     0.0000    66.0000 </r>
       <r>    -6.5691     0.0000    66.0000 </r>
       <r>    -6.3374     0.0000    66.0000 </r>
       <r>    -6.1058     0.0000    66.0000 </r>
       <r>    -5.8741     0.0000    66.0000 </r>
       <r>    -5.6425     0.0000    66.0000 </r>
       <r>    -5.4108     0.0000    66.0000 </r>
       <r>    -5.1791     0.0000    66.0000 </r>
       <r>    -4.9475     0.0000    66.0000 </r>
       <r>    -4.7158     0.0000    66.0000 </r>
       <r>    -4.4842     0.0000    66.0000 </r>
       <r>    -4.2525     0.0000    66.0000 </r>
       <r>    -4.0209     0.0000    66.0000 </r>
       <r>    -3.7892     0.0000    66.0000 </r>
       <r>    -3.5576     0.0000    66.0000 </r>
       <r>    -3.3259     0.0000    66.0000 </r>
       <r>    -3.0942     0.0000    66.0000 </r>
       <r>    -2.8626     0.0000    66.0000 </r>
       <r>    -2.6309     0.0000    66.0000 </r>
       <r>    -2.3993     0.0000    66.0000 </r>
       <r>    -2.1676     0.0000    66.0000 </r>
       <r>    -1.9360     0.0000    66.0000 </r>
       <r>    -1.7043     0.0000    66.0000 </r>
       <r>    -1.4727     0.0000    66.0000 </r>
       <r>    -1.2410     0.0000    66.0000 </r>
       <r>    -1.0093     0.0000    66.0000 </r>
       <r>    -0.7777     0.0000    66.0000 </r>
       <r>    -0.5460     3.7699    67.6269 </r>
       <r>    -0.3144     9.5383    68.9475 </r>
       <r>    -0.0827     8.9026    71.2829 </r>
       <r>     0.1489     8.4050    73.1056 </r>
       <r>     0.3806     9.3806    75.3463 </r>
       <r>     0.6122    12.6081    77.9956 </r>
       <r>     0.8439    12.6735    80.8147 </r>
       <r>     1.0756    13.5555    83.8421 </r>
       <r>     1.3072    14.5785    87.1506 </r>
       <r>     1.5389    19.2729    90.9674 </r>
       <r>     1.7705    11.2054    94.7259 </r>
       <r>     2.0022     7.7546    96.7948 </r>
       <r>     2.2338     8.5431    98.9106 </r>
       <r>     2.4655     7.0793   101.2013 </r>
       <r>     2.6971    26.4863   104.2032 </r>
       <r>     2.9288    14.8711   108.0710 </r>
       <r>     3.1605    10.5809   110.7256 </r>
       <r>     3.3921    14.9064   114.6886 </r>
       <r>     3.6238     7.8222   116.9912 </r>
       <r>     3.8554     5.7188   118.8047 </r>
       <r>     4.0871     0.8808   119.8753 </r>
       <r>     4.3187     0.0000   120.0000 </r>
       <r>     4.5504     0.0000   120.0000 </r>
       <r>     4.7821     0.0000   120.0000 </r>
       <r>     5.0137     0.0000   120.0000 </r>
       <r>     5.2454     0.0000   120.0000 </r>
       <r>     5.4770     0.0000   120.0000 </r>
       <r>     5.7087     0.0000   120.0000 </r>
       <r>     5.9403     0.0000   120.0000 </r>
       <r>     6.1720     0.0561   120.0014 </r>
       <r>     6.4036     0.4750   120.0556 </r>
       <r>     6.6353     1.8402   120.2934 </r>
       <r>     6.8670     3.7248   120.9974 </r>
       <r>     7.0986     2.9936   121.8226 </r>
       <r>     7.3303     2.8369   122.4798 </r>
       <r>     7.5619     4.9507   123.4550 </r>
       <r>     7.7936     5.9000   124.7117 </r>
       <r>     8.0252     7.2868   126.2689 </r>
       <r>     8.2569     8.5570   128.1214 </r>
       <r>     8.4885    11.5301   130.7098 </r>
       <r>     8.7202     9.5941   133.4365 </r>
       <r>     8.9519     6.2474   135.4738 </r>
       <r>     9.1835     4.7109   136.6518 </r>
       <r>     9.4152     4.1378   137.7292 </r>
       <r>     9.6468     3.4074   138.6355 </r>
       <r>     9.8785     3.7059   139.4403 </r>
       <r>    10.1101     3.5464   140.2756 </r>
       <r>    10.3418     4.9558   141.2208 </r>
       <r>    10.5734     6.8804   142.5516 </r>
       <r>    10.8051     7.5903   144.0047 </r>
       <r>    11.0368    10.1240   146.3205 </r>
       <r>    11.2684    10.7868   148.8263 </r>
       <r>    11.5001     8.4782   150.8276 </r>
       <r>    11.7317     2.3018   151.8819 </r>
       <r>    11.9634     0.0000   152.0000 </r>
       <r>    12.1950     0.0000   152.0000 </r>
       <r>    12.4267     0.0000   152.0000 </r>
       <r>    12.6583     0.0000   152.0000 </r>
       <r>    12.8900     0.0000   152.0000 </r>
       <r>    13.1217     0.0000   152.0000 </r>
       <r>    13.3533     0.0000   152.0000 </r>
       <r>    13.5850     0.0000   152.0000 </r>
       <r>    13.8166     0.0000   152.0000 </r>
       <r>    14.0483     0.0000   152.0000 </r>
       <r>    14.2799     0.0000   152.0000 </r>
       <r>    14.5116     0.0000   152.0000 </r>
       <r>    14.7433     0.0000   152.0000 </r>
       <r>    14.9749     0.0000   152.0000 </r>
      </set>
     </set>
    </array>
   </total>
  </dos>
 </calculation>
 <structure name="finalpos" >
  <crystal>
   <varray name="basis" >
    <v>       0.00000000       0.00000000      -4.02333223 </v>
    <v>       0.00000000       4.02333223       0.00000000 </v>
    <v>      12.06132168       0.00000000       0.00000000 </v>
   </varray>
   <i name="volume">    195.23905300 </i>
   <varray name="rec_basis" >
    <v>       0.00000000       0.00000000      -0.24855019 </v>
    <v>       0.00000000       0.24855019       0.00000000 </v>
    <v>       0.08290965       0.00000000       0.00000000 </v>
   </varray>
  </crystal>
  <varray name="positions" >
   <v>       0.50000000       0.50000000       0.16423027 </v>
   <v>       0.50000000       0.50000000       0.50243639 </v>
   <v>       0.50000000       0.50000000       0.33333333 </v>
   <v>       0.50000000       0.00000000       0.16683099 </v>
   <v>       0.00000000       0.50000000       0.16683099 </v>
   <v>       0.50000000       0.50000000       0.66842969 </v>
   <v>       0.50000000       0.00000000       0.49983568 </v>
   <v>       0.00000000       0.50000000       0.49983568 </v>
   <v>       0.50000000       0.50000000       0.99823697 </v>
   <v>       0.50000000       0.00000000       0.83333333 </v>
   <v>       0.00000000       0.50000000       0.83333333 </v>
   <v>       0.00000000       0.00000000       0.33333333 </v>
   <v>       0.00000000       0.00000000       0.67969351 </v>
   <v>       0.00000000       0.00000000       0.98697316 </v>
   <v>       0.50000000       0.50000000       0.83333333 </v>
  </varray>
 </structure>
</modeling>
