 running on  100 total cores
 distrk:  each k-point on  100 cores,    1 groups
 distr:  one band on   25 cores,    4 groups
 using from now: INCAR     
 vasp.5.4.4.18Apr17-6-g9f103f2a35 (build May 23 2017 16:08:52) complex          
  
 POSCAR found :  2 types and      80 ions
 scaLAPACK will be used

 ----------------------------------------------------------------------------- 
|                                                                             |
|           W    W    AA    RRRRR   N    N  II  N    N   GGGG   !!!           |
|           W    W   A  A   R    R  NN   N  II  NN   N  G    G  !!!           |
|           W    W  A    A  R    R  N N  N  II  N N  N  G       !!!           |
|           W WW W  AAAAAA  RRRRR   N  N N  II  N  N N  G  GGG   !            |
|           WW  WW  A    A  R   R   N   NN  II  N   NN  G    G                |
|           W    W  A    A  R    R  N    N  II  N    N   GGGG   !!!           |
|                                                                             |
|      For optimal performance we recommend to set                            |
|        NCORE= 4 - approx SQRT( number of cores)                             |
|      NCORE specifies how many cores store one orbital (NPAR=cpu/NCORE).     |
|      This setting can  greatly improve the performance of VASP for DFT.     |
|      The default,   NCORE=1            might be grossly inefficient         |
|      on modern multi-core architectures or massively parallel machines.     |
|      Do your own testing !!!!                                               |
|      Unfortunately you need to use the default for GW and RPA calculations. |
|      (for HF NCORE is supported but not extensively tested yet)             |
|                                                                             |
 ----------------------------------------------------------------------------- 


 ----------------------------------------------------------------------------- 
|                                                                             |
|  ADVICE TO THIS USER RUNNING 'VASP/VAMP'   (HEAR YOUR MASTER'S VOICE ...):  |
|                                                                             |
|      You have a (more or less) 'large supercell' and for larger cells       |
|      it might be more efficient to use real space projection opertators     |
|      So try LREAL= Auto  in the INCAR   file.                               |
|      Mind:          For very  accurate calculation you might also keep the  |
|      reciprocal projection scheme          (i.e. LREAL=.FALSE.)             |
|                                                                             |
 ----------------------------------------------------------------------------- 

 LDA part: xc-table for Pade appr. of Perdew
 POSCAR, INCAR and KPOINTS ok, starting setup
 FFT: planning ...
 WAVECAR not read
 entering main loop
       N       E                     dE             d eps       ncg     rms          rms(c)
DAV:   1     0.426750093897E+04    0.42675E+04   -0.33135E+05 13832   0.159E+03
DAV:   2    -0.543850440773E+03   -0.48114E+04   -0.46359E+04 16444   0.435E+02
DAV:   3    -0.924088434594E+03   -0.38024E+03   -0.37567E+03 16304   0.105E+02
DAV:   4    -0.933308231366E+03   -0.92198E+01   -0.91398E+01 16024   0.166E+01
DAV:   5    -0.933591221794E+03   -0.28299E+00   -0.28193E+00 16256   0.248E+00    0.275E+02
DAV:   6    -0.800715920450E+03    0.13288E+03   -0.76660E+02 16176   0.418E+01    0.223E+02
DAV:   7    -0.798603120435E+03    0.21128E+01   -0.60737E+01 15984   0.150E+01    0.981E+01
DAV:   8    -0.798918110334E+03   -0.31499E+00   -0.71391E+00 17696   0.456E+00    0.176E+01
DAV:   9    -0.798434810685E+03    0.48330E+00   -0.41778E+00 16296   0.391E+00    0.930E+00
DAV:  10    -0.798087854479E+03    0.34696E+00   -0.91064E-01 16296   0.172E+00    0.558E+00
DAV:  11    -0.798064158705E+03    0.23696E-01   -0.13284E-01 15984   0.656E-01    0.237E+00
DAV:  12    -0.798061864372E+03    0.22943E-02   -0.62721E-02 16336   0.515E-01    0.107E+00
DAV:  13    -0.798059936086E+03    0.19283E-02   -0.14153E-02 16264   0.242E-01    0.676E-01
DAV:  14    -0.798059537081E+03    0.39901E-03   -0.46634E-03 16680   0.126E-01    0.354E-01
DAV:  15    -0.798059541140E+03   -0.40594E-05   -0.11330E-03 18680   0.801E-02    0.187E-01
DAV:  16    -0.798059535270E+03    0.58702E-05   -0.26088E-04 15088   0.303E-02    0.864E-02
DAV:  17    -0.798059522401E+03    0.12869E-04   -0.12306E-04 17576   0.245E-02    0.503E-02
DAV:  18    -0.798059520972E+03    0.14291E-05   -0.27081E-05 10400   0.100E-02
   1 F= -.79805952E+03 E0= -.79805952E+03  d E =-.798060E+03
 curvature:   0.00 expect dE= 0.000E+00 dE for cont linesearch  0.000E+00
 trial: gam= 0.00000 g(F)=  0.958E+00 g(S)=  0.000E+00 ort = 0.000E+00 (trialstep = 0.100E+01)
 search vector abs. value=  0.958E+00
 bond charge predicted
       N       E                     dE             d eps       ncg     rms          rms(c)
DAV:   1    -0.798133346231E+03   -0.73824E-01   -0.23199E+02 13832   0.294E+01    0.114E+01
DAV:   2    -0.798728235311E+03   -0.59489E+00   -0.68568E+00 15776   0.479E+00    0.735E+00
DAV:   3    -0.798699083762E+03    0.29152E-01   -0.25699E-01 16936   0.109E+00    0.405E+00
DAV:   4    -0.798704700508E+03   -0.56167E-02   -0.10952E-01 16288   0.705E-01    0.236E+00
DAV:   5    -0.798689833540E+03    0.14867E-01   -0.48054E-02 16168   0.418E-01    0.944E-01
DAV:   6    -0.798688784992E+03    0.10485E-02   -0.11317E-02 16792   0.219E-01    0.398E-01
DAV:   7    -0.798688642503E+03    0.14249E-03   -0.21063E-03 16352   0.905E-02    0.228E-01
DAV:   8    -0.798688574718E+03    0.67785E-04   -0.92018E-04 16352   0.678E-02    0.112E-01
DAV:   9    -0.798688528749E+03    0.45968E-04   -0.24939E-04 16336   0.317E-02    0.397E-02
DAV:  10    -0.798688527503E+03    0.12459E-05   -0.96484E-05 14008   0.189E-02
   2 F= -.79868853E+03 E0= -.79868853E+03  d E =-.629007E+00
 trial-energy change:   -0.629007  1 .order   -0.631050   -0.958113   -0.303987
 step:   1.4780(harm=  1.4647)  dis= 0.06227  next Energy=  -798.760952 (dE=-0.701E+00)
 bond charge predicted
       N       E                     dE             d eps       ncg     rms          rms(c)
DAV:   1    -0.798637819377E+03    0.50709E-01   -0.53123E+01 13832   0.140E+01    0.540E+00
DAV:   2    -0.798767457605E+03   -0.12964E+00   -0.14986E+00 15824   0.224E+00    0.350E+00
DAV:   3    -0.798761813600E+03    0.56440E-02   -0.57498E-02 17264   0.487E-01    0.193E+00
DAV:   4    -0.798763841782E+03   -0.20282E-02   -0.26441E-02 16240   0.322E-01    0.125E+00
DAV:   5    -0.798759382570E+03    0.44592E-02   -0.11725E-02 16168   0.197E-01    0.437E-01
DAV:   6    -0.798759241227E+03    0.14134E-03   -0.23368E-03 16968   0.999E-02    0.173E-01
DAV:   7    -0.798759215059E+03    0.26168E-04   -0.43277E-04 16208   0.403E-02    0.103E-01
DAV:   8    -0.798759200576E+03    0.14483E-04   -0.16803E-04 15192   0.294E-02    0.520E-02
DAV:   9    -0.798759192081E+03    0.84946E-05   -0.50308E-05 13800   0.143E-02
   3 F= -.79875919E+03 E0= -.79875919E+03  d E =-.699671E+00
 curvature:  -0.73 expect dE=-0.456E+00 dE for cont linesearch -0.303E-04
 trial: gam= 0.65663 g(F)=  0.623E+00 g(S)=  0.000E+00 ort =-0.630E-02 (trialstep = 0.102E+01)
 search vector abs. value=  0.103E+01
 bond charge predicted
       N       E                     dE             d eps       ncg     rms          rms(c)
DAV:   1    -0.798369692376E+03    0.38951E+00   -0.23533E+02 13832   0.296E+01    0.112E+01
DAV:   2    -0.799124146494E+03   -0.75445E+00   -0.85839E+00 15576   0.525E+00    0.569E+00
DAV:   3    -0.799117661800E+03    0.64847E-02   -0.27536E-01 17248   0.105E+00    0.357E+00
DAV:   4    -0.799122764993E+03   -0.51032E-02   -0.96850E-02 16240   0.591E-01    0.281E+00
DAV:   5    -0.799106750353E+03    0.16015E-01   -0.41241E-02 16264   0.398E-01    0.106E+00
DAV:   6    -0.799105803889E+03    0.94646E-03   -0.12798E-02 18312   0.265E-01    0.377E-01
DAV:   7    -0.799105611377E+03    0.19251E-03   -0.40724E-03 16208   0.111E-01    0.214E-01
DAV:   8    -0.799105508089E+03    0.10329E-03   -0.49593E-04 16152   0.498E-02    0.127E-01
DAV:   9    -0.799105494297E+03    0.13793E-04   -0.20742E-04 15928   0.299E-02    0.489E-02
DAV:  10    -0.799105491683E+03    0.26135E-05   -0.55508E-05 14008   0.169E-02
   4 F= -.79910549E+03 E0= -.79910549E+03  d E =-.346300E+00
 trial-energy change:   -0.346300  1 .order   -0.346253   -0.631962   -0.060544
 step:   1.1297(harm=  1.1297)  dis= 0.06160  next Energy=  -799.108652 (dE=-0.349E+00)
 bond charge predicted
       N       E                     dE             d eps       ncg     rms          rms(c)
DAV:   1    -0.799100691164E+03    0.48031E-02   -0.26460E+00 13840   0.314E+00    0.119E+00
DAV:   2    -0.799108775352E+03   -0.80842E-02   -0.92370E-02 15544   0.545E-01    0.593E-01
DAV:   3    -0.799108707509E+03    0.67843E-04   -0.30022E-03 17340   0.108E-01    0.376E-01
DAV:   4    -0.799108771368E+03   -0.63859E-04   -0.94114E-04 16248   0.578E-02    0.289E-01
DAV:   5    -0.799108602616E+03    0.16875E-03   -0.45307E-04 16256   0.411E-02    0.109E-01
DAV:   6    -0.799108590200E+03    0.12416E-04   -0.12369E-04 16824   0.268E-02    0.376E-02
DAV:   7    -0.799108588801E+03    0.13989E-05   -0.38975E-05 12936   0.110E-02
   5 F= -.79910859E+03 E0= -.79910859E+03  d E =-.349397E+00
 curvature:  -0.94 expect dE=-0.204E+00 dE for cont linesearch -0.224E-05
 trial: gam= 0.33293 g(F)=  0.217E+00 g(S)=  0.000E+00 ort =-0.157E-02 (trialstep = 0.104E+01)
 search vector abs. value=  0.330E+00
 bond charge predicted
       N       E                     dE             d eps       ncg     rms          rms(c)
DAV:   1    -0.798992702942E+03    0.11589E+00   -0.77551E+01 13832   0.169E+01    0.680E+00
DAV:   2    -0.799243890279E+03   -0.25119E+00   -0.28408E+00 15536   0.301E+00    0.323E+00
DAV:   3    -0.799243684007E+03    0.20627E-03   -0.10982E-01 16744   0.677E-01    0.209E+00
DAV:   4    -0.799244343883E+03   -0.65988E-03   -0.38521E-02 16264   0.409E-01    0.169E+00
DAV:   5    -0.799238360217E+03    0.59837E-02   -0.12289E-02 16328   0.255E-01    0.673E-01
DAV:   6    -0.799238208723E+03    0.15149E-03   -0.43429E-03 17624   0.157E-01    0.287E-01
DAV:   7    -0.799238032882E+03    0.17584E-03   -0.16088E-03 16464   0.859E-02    0.141E-01
DAV:   8    -0.799238006418E+03    0.26464E-04   -0.26330E-04 15760   0.347E-02    0.910E-02
DAV:   9    -0.799238002027E+03    0.43909E-05   -0.15075E-04 14672   0.272E-02    0.386E-02
DAV:  10    -0.799237997569E+03    0.44583E-05   -0.31131E-05 11648   0.140E-02
   6 F= -.79923800E+03 E0= -.79923800E+03  d E =-.129409E+00
 trial-energy change:   -0.129409  1 .order   -0.129481   -0.226051   -0.032911
 step:   1.2208(harm=  1.2208)  dis= 0.03486  next Energy=  -799.240873 (dE=-0.132E+00)
 bond charge predicted
       N       E                     dE             d eps       ncg     rms          rms(c)
DAV:   1    -0.799233786039E+03    0.42160E-02   -0.22558E+00 13848   0.287E+00    0.116E+00
DAV:   2    -0.799240948730E+03   -0.71627E-02   -0.81335E-02 15560   0.512E-01    0.551E-01
DAV:   3    -0.799240944286E+03    0.44440E-05   -0.32598E-03 16652   0.117E-01    0.363E-01
DAV:   4    -0.799240944282E+03    0.37980E-08   -0.11412E-03 16264   0.694E-02    0.293E-01
DAV:   5    -0.799240767510E+03    0.17677E-03   -0.35299E-04 16280   0.445E-02    0.114E-01
DAV:   6    -0.799240765049E+03    0.24603E-05   -0.13346E-04 17152   0.278E-02    0.520E-02
DAV:   7    -0.799240758415E+03    0.66343E-05   -0.47722E-05 14136   0.147E-02
   7 F= -.79924076E+03 E0= -.79924076E+03  d E =-.132170E+00
 curvature:  -0.93 expect dE=-0.106E+00 dE for cont linesearch -0.869E-06
 trial: gam= 0.52557 g(F)=  0.114E+00 g(S)=  0.000E+00 ort =-0.556E-03 (trialstep = 0.108E+01)
 search vector abs. value=  0.205E+00
 bond charge predicted
       N       E                     dE             d eps       ncg     rms          rms(c)
DAV:   1    -0.799162100310E+03    0.78665E-01   -0.54676E+01 13832   0.142E+01    0.511E+00
DAV:   2    -0.799316871645E+03   -0.15477E+00   -0.17334E+00 15632   0.238E+00    0.290E+00
DAV:   3    -0.799313971512E+03    0.29001E-02   -0.61444E-02 17104   0.562E-01    0.177E+00
DAV:   4    -0.799315917735E+03   -0.19462E-02   -0.29553E-02 16408   0.366E-01    0.148E+00
DAV:   5    -0.799309955644E+03    0.59621E-02   -0.11018E-02 16456   0.255E-01    0.552E-01
DAV:   6    -0.799309852202E+03    0.10344E-03   -0.35499E-03 17008   0.122E-01    0.274E-01
DAV:   7    -0.799309667952E+03    0.18425E-03   -0.99040E-04 16304   0.641E-02    0.105E-01
DAV:   8    -0.799309645859E+03    0.22093E-04   -0.14945E-04 15240   0.279E-02    0.664E-02
DAV:   9    -0.799309643126E+03    0.27329E-05   -0.98382E-05 14456   0.211E-02
   8 F= -.79930964E+03 E0= -.79930964E+03  d E =-.688847E-01
 trial-energy change:   -0.068885  1 .order   -0.069329   -0.123153   -0.015505
 step:   1.2385(harm=  1.2340)  dis= 0.02589  next Energy=  -799.310791 (dE=-0.700E-01)
 bond charge predicted
       N       E                     dE             d eps       ncg     rms          rms(c)
DAV:   1    -0.799307394902E+03    0.22510E-02   -0.12022E+00 13872   0.211E+00    0.762E-01
DAV:   2    -0.799310781422E+03   -0.33865E-02   -0.38141E-02 15624   0.354E-01    0.441E-01
DAV:   3    -0.799310709662E+03    0.71761E-04   -0.14341E-03 16936   0.861E-02    0.270E-01
DAV:   4    -0.799310733562E+03   -0.23901E-04   -0.69031E-04 16400   0.561E-02    0.227E-01
DAV:   5    -0.799310603288E+03    0.13027E-03   -0.24846E-04 16360   0.386E-02    0.822E-02
DAV:   6    -0.799310602122E+03    0.11659E-05   -0.87639E-05 15472   0.189E-02
   9 F= -.79931060E+03 E0= -.79931060E+03  d E =-.698437E-01
 curvature:  -1.11 expect dE=-0.724E-01 dE for cont linesearch -0.182E-04
 trial: gam= 0.58144 g(F)=  0.654E-01 g(S)=  0.000E+00 ort =-0.184E-02 (trialstep = 0.111E+01)
 search vector abs. value=  0.133E+00
 bond charge predicted
       N       E                     dE             d eps       ncg     rms          rms(c)
DAV:   1    -0.799257925053E+03    0.52678E-01   -0.37723E+01 13832   0.119E+01    0.370E+00
DAV:   2    -0.799363948542E+03   -0.10602E+00   -0.11658E+00 15608   0.199E+00    0.219E+00
DAV:   3    -0.799361955256E+03    0.19933E-02   -0.56234E-02 16672   0.513E-01    0.144E+00
DAV:   4    -0.799358734210E+03    0.32210E-02   -0.16318E-02 16376   0.283E-01    0.108E+00
DAV:   5    -0.799357017972E+03    0.17162E-02   -0.53363E-03 16240   0.171E-01    0.405E-01
DAV:   6    -0.799357043641E+03   -0.25669E-04   -0.22121E-03 17352   0.988E-02    0.211E-01
DAV:   7    -0.799356893351E+03    0.15029E-03   -0.77320E-04 16280   0.543E-02    0.842E-02
DAV:   8    -0.799356879903E+03    0.13448E-04   -0.98492E-05 14792   0.212E-02    0.569E-02
DAV:   9    -0.799356876370E+03    0.35331E-05   -0.50221E-05 13232   0.155E-02
  10 F= -.79935688E+03 E0= -.79935688E+03  d E =-.462742E-01
 trial-energy change:   -0.046274  1 .order   -0.046549   -0.071398   -0.021700
 step:   1.6202(harm=  1.5956)  dis= 0.03326  next Energy=  -799.361829 (dE=-0.512E-01)
 bond charge predicted
       N       E                     dE             d eps       ncg     rms          rms(c)
DAV:   1    -0.799340540332E+03    0.16340E-01   -0.79441E+00 13832   0.544E+00    0.170E+00
DAV:   2    -0.799362869894E+03   -0.22330E-01   -0.24495E-01 15640   0.913E-01    0.102E+00
DAV:   3    -0.799362345090E+03    0.52480E-03   -0.12285E-02 16632   0.237E-01    0.666E-01
DAV:   4    -0.799361619090E+03    0.72600E-03   -0.34587E-03 16432   0.129E-01    0.496E-01
DAV:   5    -0.799361260636E+03    0.35845E-03   -0.11024E-03 16240   0.792E-02    0.182E-01
DAV:   6    -0.799361272654E+03   -0.12017E-04   -0.47089E-04 17400   0.458E-02    0.948E-02
DAV:   7    -0.799361241236E+03    0.31417E-04   -0.16354E-04 15272   0.243E-02    0.387E-02
DAV:   8    -0.799361237952E+03    0.32846E-05   -0.17697E-05  9872   0.963E-03
  11 F= -.79936124E+03 E0= -.79936124E+03  d E =-.506358E-01
 curvature:  -1.64 expect dE=-0.903E-01 dE for cont linesearch -0.486E-04
 trial: gam= 0.85074 g(F)=  0.551E-01 g(S)=  0.000E+00 ort =-0.198E-02 (trialstep = 0.109E+01)
 search vector abs. value=  0.148E+00
 bond charge predicted
       N       E                     dE             d eps       ncg     rms          rms(c)
DAV:   1    -0.799289722123E+03    0.71519E-01   -0.40094E+01 13832   0.122E+01    0.403E+00
DAV:   2    -0.799402935077E+03   -0.11321E+00   -0.12610E+00 15560   0.204E+00    0.209E+00
DAV:   3    -0.799401612863E+03    0.13222E-02   -0.56924E-02 17008   0.502E-01    0.142E+00
DAV:   4    -0.799398557790E+03    0.30551E-02   -0.15619E-02 16440   0.269E-01    0.103E+00
DAV:   5    -0.799396999468E+03    0.15583E-02   -0.48202E-03 16328   0.171E-01    0.341E-01
DAV:   6    -0.799397071958E+03   -0.72490E-04   -0.15542E-03 17448   0.887E-02    0.130E-01
DAV:   7    -0.799397040645E+03    0.31313E-04   -0.43733E-04 16160   0.392E-02    0.766E-02
DAV:   8    -0.799397024318E+03    0.16327E-04   -0.64923E-05 14440   0.166E-02    0.535E-02
DAV:   9    -0.799397020062E+03    0.42563E-05   -0.41849E-05 13040   0.146E-02
  12 F= -.79939702E+03 E0= -.79939702E+03  d E =-.357821E-01
 trial-energy change:   -0.035782  1 .order   -0.036066   -0.058109   -0.014022
 step:   1.4538(harm=  1.4350)  dis= 0.03200  next Energy=  -799.399360 (dE=-0.381E-01)
 bond charge predicted
       N       E                     dE             d eps       ncg     rms          rms(c)
DAV:   1    -0.799386963927E+03    0.10060E-01   -0.45085E+00 13832   0.410E+00    0.135E+00
DAV:   2    -0.799399621800E+03   -0.12658E-01   -0.14094E-01 15560   0.683E-01    0.700E-01
DAV:   3    -0.799399447555E+03    0.17424E-03   -0.63571E-03 17016   0.166E-01    0.468E-01
DAV:   4    -0.799399172108E+03    0.27545E-03   -0.17675E-03 16408   0.905E-02    0.348E-01
DAV:   5    -0.799398980826E+03    0.19128E-03   -0.54362E-04 16304   0.589E-02    0.115E-01
DAV:   6    -0.799398991301E+03   -0.10475E-04   -0.20274E-04 17464   0.314E-02    0.538E-02
DAV:   7    -0.799398982591E+03    0.87104E-05   -0.60884E-05 14312   0.144E-02
  13 F= -.79939898E+03 E0= -.79939898E+03  d E =-.377446E-01
 curvature:  -1.98 expect dE=-0.880E-01 dE for cont linesearch -0.406E-04
 trial: gam= 0.80390 g(F)=  0.445E-01 g(S)=  0.000E+00 ort =-0.174E-02 (trialstep = 0.116E+01)
 search vector abs. value=  0.137E+00
 bond charge predicted
       N       E                     dE             d eps       ncg     rms          rms(c)
DAV:   1    -0.799312727643E+03    0.86264E-01   -0.41663E+01 13832   0.124E+01    0.379E+00
DAV:   2    -0.799433111014E+03   -0.12038E+00   -0.13375E+00 15384   0.205E+00    0.196E+00
DAV:   3    -0.799431729522E+03    0.13815E-02   -0.46450E-02 17240   0.428E-01    0.131E+00
DAV:   4    -0.799431841462E+03   -0.11194E-03   -0.13183E-02 16360   0.236E-01    0.105E+00
DAV:   5    -0.799429511465E+03    0.23300E-02   -0.50612E-03 16432   0.173E-01    0.351E-01
DAV:   6    -0.799429521878E+03   -0.10413E-04   -0.19777E-03 17384   0.988E-02    0.159E-01
DAV:   7    -0.799429451022E+03    0.70857E-04   -0.62399E-04 16104   0.440E-02    0.915E-02
DAV:   8    -0.799429440572E+03    0.10449E-04   -0.69642E-05 14600   0.185E-02    0.606E-02
DAV:   9    -0.799429439371E+03    0.12019E-05   -0.41109E-05 13960   0.150E-02
  14 F= -.79942944E+03 E0= -.79942944E+03  d E =-.304568E-01
 trial-energy change:   -0.030457  1 .order   -0.030472   -0.050056   -0.010888
 step:   1.4847(harm=  1.4847)  dis= 0.02991  next Energy=  -799.430968 (dE=-0.320E-01)
 bond charge predicted
       N       E                     dE             d eps       ncg     rms          rms(c)
DAV:   1    -0.799421691424E+03    0.77491E-02   -0.32193E+00 13832   0.344E+00    0.106E+00
DAV:   2    -0.799430963294E+03   -0.92719E-02   -0.10269E-01 15392   0.570E-01    0.543E-01
DAV:   3    -0.799430863869E+03    0.99425E-04   -0.35396E-03 17352   0.115E-01    0.363E-01
DAV:   4    -0.799430888154E+03   -0.24285E-04   -0.10582E-03 16400   0.641E-02    0.290E-01
DAV:   5    -0.799430700278E+03    0.18788E-03   -0.41163E-04 16432   0.459E-02    0.970E-02
DAV:   6    -0.799430700031E+03    0.24750E-06   -0.14603E-04 17408   0.276E-02    0.424E-02
DAV:   7    -0.799430695981E+03    0.40499E-05   -0.44902E-05 13264   0.120E-02
  15 F= -.79943070E+03 E0= -.79943070E+03  d E =-.317134E-01
 curvature:  -2.36 expect dE=-0.104E+00 dE for cont linesearch -0.263E-04
 trial: gam= 0.96710 g(F)=  0.442E-01 g(S)=  0.000E+00 ort =-0.123E-02 (trialstep = 0.989E+00)
 search vector abs. value=  0.170E+00
 bond charge predicted
       N       E                     dE             d eps       ncg     rms          rms(c)
DAV:   1    -0.799347391861E+03    0.83308E-01   -0.36653E+01 13832   0.116E+01    0.374E+00
DAV:   2    -0.799458963221E+03   -0.11157E+00   -0.12280E+00 15088   0.195E+00    0.175E+00
DAV:   3    -0.799458512577E+03    0.45064E-03   -0.38624E-02 17352   0.372E-01    0.121E+00
DAV:   4    -0.799458908987E+03   -0.39641E-03   -0.98845E-03 16392   0.192E-01    0.887E-01
DAV:   5    -0.799457340436E+03    0.15686E-02   -0.46328E-03 16360   0.149E-01    0.315E-01
DAV:   6    -0.799457235392E+03    0.10504E-03   -0.16573E-03 17552   0.864E-02    0.142E-01
DAV:   7    -0.799457206001E+03    0.29391E-04   -0.38154E-04 16016   0.356E-02    0.843E-02
DAV:   8    -0.799457201482E+03    0.45192E-05   -0.62457E-05 14344   0.184E-02
  16 F= -.79945720E+03 E0= -.79945720E+03  d E =-.265055E-01
 trial-energy change:   -0.026506  1 .order   -0.026321   -0.042551   -0.010092
 step:   1.2828(harm=  1.2959)  dis= 0.02531  next Energy=  -799.458709 (dE=-0.280E-01)
 bond charge predicted
       N       E                     dE             d eps       ncg     rms          rms(c)
DAV:   1    -0.799448854284E+03    0.83517E-02   -0.32504E+00 13832   0.345E+00    0.112E+00
DAV:   2    -0.799458767970E+03   -0.99137E-02   -0.10886E-01 15128   0.579E-01    0.521E-01
DAV:   3    -0.799458732575E+03    0.35395E-04   -0.33391E-03 17376   0.109E-01    0.360E-01
DAV:   4    -0.799458773524E+03   -0.40949E-04   -0.88720E-04 16376   0.568E-02    0.257E-01
DAV:   5    -0.799458639234E+03    0.13429E-03   -0.42998E-04 15320   0.422E-02    0.938E-02
DAV:   6    -0.799458627438E+03    0.11795E-04   -0.14024E-04 17496   0.260E-02    0.396E-02
DAV:   7    -0.799458626250E+03    0.11884E-05   -0.29437E-05 11520   0.103E-02
  17 F= -.79945863E+03 E0= -.79945863E+03  d E =-.279303E-01
 curvature:  -2.56 expect dE=-0.726E-01 dE for cont linesearch -0.535E-05
 trial: gam= 0.55003 g(F)=  0.284E-01 g(S)=  0.000E+00 ort =-0.597E-03 (trialstep = 0.105E+01)
 search vector abs. value=  0.792E-01
 bond charge predicted
       N       E                     dE             d eps       ncg     rms          rms(c)
DAV:   1    -0.799419682616E+03    0.38945E-01   -0.18970E+01 13832   0.834E+00    0.267E+00
DAV:   2    -0.799478515414E+03   -0.58833E-01   -0.64408E-01 15080   0.140E+00    0.126E+00
DAV:   3    -0.799478274290E+03    0.24112E-03   -0.19104E-02 17440   0.256E-01    0.879E-01
DAV:   4    -0.799478508615E+03   -0.23432E-03   -0.50267E-03 16296   0.135E-01    0.581E-01
DAV:   5    -0.799477803496E+03    0.70512E-03   -0.25320E-03 16184   0.101E-01    0.237E-01
DAV:   6    -0.799477709878E+03    0.93618E-04   -0.73417E-04 17800   0.611E-02    0.947E-02
DAV:   7    -0.799477711897E+03   -0.20190E-05   -0.14932E-04 15256   0.225E-02    0.548E-02
DAV:   8    -0.799477710448E+03    0.14498E-05   -0.43247E-05 13224   0.151E-02
  18 F= -.79947771E+03 E0= -.79947771E+03  d E =-.190842E-01
 trial-energy change:   -0.019084  1 .order   -0.019112   -0.029413   -0.008810
 step:   1.4953(harm=  1.4953)  dis= 0.01588  next Energy=  -799.479622 (dE=-0.210E-01)
 bond charge predicted
       N       E                     dE             d eps       ncg     rms          rms(c)
DAV:   1    -0.799468782848E+03    0.89290E-02   -0.34681E+00 13832   0.357E+00    0.115E+00
DAV:   2    -0.799479563682E+03   -0.10781E-01   -0.11801E-01 15080   0.602E-01    0.541E-01
DAV:   3    -0.799479517768E+03    0.45914E-04   -0.34731E-03 17424   0.109E-01    0.376E-01
DAV:   4    -0.799479563251E+03   -0.45483E-04   -0.97077E-04 16376   0.588E-02    0.246E-01
DAV:   5    -0.799479433964E+03    0.12929E-03   -0.47732E-04 15680   0.417E-02    0.102E-01
DAV:   6    -0.799479415971E+03    0.17992E-04   -0.13377E-04 16984   0.268E-02    0.398E-02
DAV:   7    -0.799479416680E+03   -0.70853E-06   -0.25675E-05 10736   0.986E-03
  19 F= -.79947942E+03 E0= -.79947942E+03  d E =-.207904E-01
 curvature:  -2.11 expect dE=-0.388E-01 dE for cont linesearch -0.128E-04
 trial: gam= 0.62348 g(F)=  0.184E-01 g(S)=  0.000E+00 ort =-0.693E-03 (trialstep = 0.114E+01)
 search vector abs. value=  0.483E-01
 bond charge predicted
       N       E                     dE             d eps       ncg     rms          rms(c)
DAV:   1    -0.799452936893E+03    0.26479E-01   -0.14057E+01 13832   0.728E+00    0.212E+00
DAV:   2    -0.799492947183E+03   -0.40010E-01   -0.44106E-01 15192   0.120E+00    0.112E+00
DAV:   3    -0.799492436383E+03    0.51080E-03   -0.13284E-02 17456   0.226E-01    0.739E-01
DAV:   4    -0.799492566615E+03   -0.13023E-03   -0.39467E-03 16280   0.122E-01    0.472E-01
DAV:   5    -0.799492028874E+03    0.53774E-03   -0.19851E-03 16152   0.874E-02    0.179E-01
DAV:   6    -0.799491960217E+03    0.68657E-04   -0.59073E-04 17864   0.522E-02    0.735E-02
DAV:   7    -0.799491959386E+03    0.83082E-06   -0.10314E-04 15056   0.199E-02    0.387E-02
DAV:   8    -0.799491958751E+03    0.63522E-06   -0.32857E-05 11976   0.130E-02
  20 F= -.79949196E+03 E0= -.79949196E+03  d E =-.125421E-01
 trial-energy change:   -0.012542  1 .order   -0.012572   -0.020431   -0.004712
 step:   1.4778(harm=  1.4778)  dis= 0.01582  next Energy=  -799.492695 (dE=-0.133E-01)
 bond charge predicted
       N       E                     dE             d eps       ncg     rms          rms(c)
DAV:   1    -0.799489083964E+03    0.28754E-02   -0.12631E+00 13832   0.219E+00    0.638E-01
DAV:   2    -0.799492686059E+03   -0.36021E-02   -0.39733E-02 15200   0.361E-01    0.336E-01
DAV:   3    -0.799492640700E+03    0.45359E-04   -0.11990E-03 17424   0.682E-02    0.221E-01
DAV:   4    -0.799492656440E+03   -0.15741E-04   -0.38358E-04 16344   0.377E-02    0.145E-01
DAV:   5    -0.799492602729E+03    0.53712E-04   -0.18566E-04 14568   0.263E-02    0.536E-02
DAV:   6    -0.799492597031E+03    0.56981E-05   -0.50867E-05 13384   0.162E-02
  21 F= -.79949260E+03 E0= -.79949260E+03  d E =-.131804E-01
 curvature:  -1.99 expect dE=-0.239E-01 dE for cont linesearch -0.956E-05
 trial: gam= 0.63255 g(F)=  0.120E-01 g(S)=  0.000E+00 ort =-0.482E-03 (trialstep = 0.121E+01)
 search vector abs. value=  0.307E-01
 bond charge predicted
       N       E                     dE             d eps       ncg     rms          rms(c)
DAV:   1    -0.799474185758E+03    0.18417E-01   -0.10234E+01 13832   0.620E+00    0.171E+00
DAV:   2    -0.799501859152E+03   -0.27673E-01   -0.30709E-01 15424   0.100E+00    0.863E-01
DAV:   3    -0.799501516798E+03    0.34235E-03   -0.10502E-02 17344   0.190E-01    0.571E-01
DAV:   4    -0.799501503939E+03    0.12859E-04   -0.32893E-03 16192   0.104E-01    0.423E-01
DAV:   5    -0.799501037890E+03    0.46605E-03   -0.12927E-03 16168   0.719E-02    0.138E-01
DAV:   6    -0.799501023803E+03    0.14088E-04   -0.39630E-04 18272   0.460E-02    0.633E-02
DAV:   7    -0.799501022721E+03    0.10820E-05   -0.79234E-05 14368   0.165E-02
  22 F= -.79950102E+03 E0= -.79950102E+03  d E =-.842569E-02
 trial-energy change:   -0.008426  1 .order   -0.008297   -0.014104   -0.002490
 step:   1.4444(harm=  1.4635)  dis= 0.01481  next Energy=  -799.501271 (dE=-0.867E-02)
 bond charge predicted
       N       E                     dE             d eps       ncg     rms          rms(c)
DAV:   1    -0.799500219316E+03    0.80449E-03   -0.40406E-01 13872   0.123E+00    0.343E-01
DAV:   2    -0.799501317180E+03   -0.10979E-02   -0.12181E-02 15488   0.201E-01    0.173E-01
DAV:   3    -0.799501309738E+03    0.74424E-05   -0.42944E-04 17360   0.379E-02    0.115E-01
DAV:   4    -0.799501309588E+03    0.14984E-06   -0.12872E-04 14552   0.207E-02    0.849E-02
DAV:   5    -0.799501291839E+03    0.17749E-04   -0.51963E-05 13176   0.145E-02    0.276E-02
DAV:   6    -0.799501290959E+03    0.88001E-06   -0.12333E-05  9504   0.936E-03
  23 F= -.79950129E+03 E0= -.79950129E+03  d E =-.869393E-02
 curvature:  -1.91 expect dE=-0.127E-01 dE for cont linesearch -0.115E-06
 trial: gam= 0.52960 g(F)=  0.666E-02 g(S)=  0.000E+00 ort = 0.430E-04 (trialstep = 0.125E+01)
 search vector abs. value=  0.153E-01
 bond charge predicted
       N       E                     dE             d eps       ncg     rms          rms(c)
DAV:   1    -0.799492415712E+03    0.88761E-02   -0.55972E+00 13832   0.458E+00    0.132E+00
DAV:   2    -0.799507122870E+03   -0.14707E-01   -0.16348E-01 15480   0.735E-01    0.685E-01
DAV:   3    -0.799506884544E+03    0.23833E-03   -0.58175E-03 17488   0.148E-01    0.441E-01
DAV:   4    -0.799506881554E+03    0.29901E-05   -0.19807E-03 16248   0.837E-02    0.313E-01
DAV:   5    -0.799506583568E+03    0.29799E-03   -0.78685E-04 16152   0.546E-02    0.983E-02
DAV:   6    -0.799506581936E+03    0.16317E-05   -0.19981E-04 17392   0.308E-02    0.453E-02
DAV:   7    -0.799506580977E+03    0.95917E-06   -0.35518E-05 12216   0.113E-02
  24 F= -.79950658E+03 E0= -.79950658E+03  d E =-.529002E-02
 trial-energy change:   -0.005290  1 .order   -0.005219   -0.008370   -0.002069
 step:   1.6312(harm=  1.6644)  dis= 0.01042  next Energy=  -799.506895 (dE=-0.560E-02)
 bond charge predicted
       N       E                     dE             d eps       ncg     rms          rms(c)
DAV:   1    -0.799505637280E+03    0.94466E-03   -0.51088E-01 13856   0.139E+00    0.400E-01
DAV:   2    -0.799506982045E+03   -0.13448E-02   -0.14970E-02 15488   0.223E-01    0.209E-01
DAV:   3    -0.799506963247E+03    0.18797E-04   -0.54076E-04 17448   0.450E-02    0.135E-01
DAV:   4    -0.799506962989E+03    0.25828E-06   -0.18039E-04 15840   0.250E-02    0.952E-02
DAV:   5    -0.799506936397E+03    0.26592E-04   -0.73429E-05 14056   0.171E-02    0.300E-02
DAV:   6    -0.799506935751E+03    0.64615E-06   -0.15446E-05 10208   0.966E-03
  25 F= -.79950694E+03 E0= -.79950694E+03  d E =-.564479E-02
 curvature:  -1.90 expect dE=-0.970E-02 dE for cont linesearch -0.822E-06
 trial: gam= 0.77298 g(F)=  0.511E-02 g(S)=  0.000E+00 ort = 0.815E-04 (trialstep = 0.133E+01)
 search vector abs. value=  0.144E-01
 bond charge predicted
       N       E                     dE             d eps       ncg     rms          rms(c)
DAV:   1    -0.799495285944E+03    0.11650E-01   -0.57153E+00 13832   0.465E+00    0.144E+00
DAV:   2    -0.799511309730E+03   -0.16024E-01   -0.18127E-01 15536   0.777E-01    0.724E-01
DAV:   3    -0.799511057900E+03    0.25183E-03   -0.78614E-03 16992   0.167E-01    0.476E-01
DAV:   4    -0.799510881832E+03    0.17607E-03   -0.21442E-03 16016   0.866E-02    0.334E-01
DAV:   5    -0.799510634699E+03    0.24713E-03   -0.74540E-04 16064   0.565E-02    0.121E-01
DAV:   6    -0.799510630391E+03    0.43072E-05   -0.23757E-04 17872   0.352E-02    0.477E-02
DAV:   7    -0.799510630461E+03   -0.69398E-07   -0.50613E-05 13472   0.129E-02
  26 F= -.79951063E+03 E0= -.79951063E+03  d E =-.369471E-02
 trial-energy change:   -0.003695  1 .order   -0.003610   -0.006878   -0.000342
 step:   1.3929(harm=  1.3981)  dis= 0.00770  next Energy=  -799.510639 (dE=-0.370E-02)
 bond charge predicted
       N       E                     dE             d eps       ncg     rms          rms(c)
DAV:   1    -0.799510604223E+03    0.26169E-04   -0.13489E-02 14128   0.226E-01    0.723E-02
DAV:   2    -0.799510642349E+03   -0.38126E-04   -0.43705E-04 15624   0.385E-02    0.371E-02
DAV:   3    -0.799510642136E+03    0.21260E-06   -0.19344E-05 10560   0.883E-03
  27 F= -.79951064E+03 E0= -.79951064E+03  d E =-.370638E-02
 curvature:  -1.93 expect dE=-0.997E-02 dE for cont linesearch -0.638E-06
 trial: gam= 1.03111 g(F)=  0.516E-02 g(S)=  0.000E+00 ort = 0.689E-04 (trialstep = 0.937E+00)
 search vector abs. value=  0.206E-01
 bond charge predicted
       N       E                     dE             d eps       ncg     rms          rms(c)
DAV:   1    -0.799503530521E+03    0.71118E-02   -0.39235E+00 13832   0.378E+00    0.110E+00
DAV:   2    -0.799515240694E+03   -0.11710E-01   -0.13068E-01 15472   0.629E-01    0.542E-01
DAV:   3    -0.799514960247E+03    0.28045E-03   -0.55033E-03 16880   0.131E-01    0.377E-01
DAV:   4    -0.799514799940E+03    0.16031E-03   -0.99431E-04 16200   0.574E-02    0.278E-01
DAV:   5    -0.799514706892E+03    0.93048E-04   -0.37629E-04 15568   0.439E-02    0.839E-02
DAV:   6    -0.799514711758E+03   -0.48664E-05   -0.12704E-04 16288   0.227E-02    0.298E-02
DAV:   7    -0.799514710949E+03    0.80921E-06   -0.22229E-05  9968   0.940E-03
  28 F= -.79951471E+03 E0= -.79951471E+03  d E =-.406881E-02
 trial-energy change:   -0.004069  1 .order   -0.004057   -0.004900   -0.003214
 step:   2.7242(harm=  2.7242)  dis= 0.01800  next Energy=  -799.517763 (dE=-0.712E-02)
 bond charge predicted
       N       E                     dE             d eps       ncg     rms          rms(c)
DAV:   1    -0.799477155537E+03    0.37556E-01   -0.14267E+01 13832   0.720E+00    0.209E+00
DAV:   2    -0.799519728340E+03   -0.42573E-01   -0.47624E-01 15456   0.120E+00    0.102E+00
DAV:   3    -0.799518772074E+03    0.95627E-03   -0.19675E-02 16864   0.250E-01    0.710E-01
DAV:   4    -0.799518261147E+03    0.51093E-03   -0.36528E-03 16200   0.106E-01    0.524E-01
DAV:   5    -0.799517906525E+03    0.35462E-03   -0.13342E-03 16144   0.828E-02    0.156E-01
DAV:   6    -0.799517923240E+03   -0.16716E-04   -0.44545E-04 17280   0.426E-02    0.589E-02
DAV:   7    -0.799517921615E+03    0.16249E-05   -0.82390E-05 14416   0.170E-02
  29 F= -.79951792E+03 E0= -.79951792E+03  d E =-.727948E-02
 curvature:  -5.37 expect dE=-0.491E-01 dE for cont linesearch -0.421E-05
 trial: gam= 1.74560 g(F)=  0.914E-02 g(S)=  0.000E+00 ort = 0.127E-03 (trialstep = 0.369E+00)
 search vector abs. value=  0.724E-01
 bond charge predicted
       N       E                     dE             d eps       ncg     rms          rms(c)
DAV:   1    -0.799515091458E+03    0.28318E-02   -0.20925E+00 13832   0.269E+00    0.829E-01
DAV:   2    -0.799521477402E+03   -0.63859E-02   -0.72826E-02 15560   0.458E-01    0.419E-01
DAV:   3    -0.799521288527E+03    0.18888E-03   -0.34345E-03 16536   0.102E-01    0.285E-01
DAV:   4    -0.799521209924E+03    0.78603E-04   -0.53683E-04 16232   0.397E-02    0.215E-01
DAV:   5    -0.799521170880E+03    0.39045E-04   -0.19354E-04 15360   0.316E-02    0.730E-02
DAV:   6    -0.799521171746E+03   -0.86588E-06   -0.66777E-05 15400   0.164E-02
  30 F= -.79952117E+03 E0= -.79952117E+03  d E =-.325013E-02
 ZBRENT: can't locate minimum, use default step
 trial-energy change:   -0.003250  1 .order   -0.003194   -0.003452   -0.002935
 step:   1.4743(harm=  2.4607)  dis= 0.02342  next Energy=  -799.529446 (dE=-0.115E-01)
 bond charge predicted
       N       E                     dE             d eps       ncg     rms          rms(c)
DAV:   1    -0.799472645949E+03    0.48525E-01   -0.18825E+01 13832   0.808E+00    0.244E+00
DAV:   2    -0.799530344378E+03   -0.57698E-01   -0.65434E-01 15520   0.137E+00    0.122E+00
DAV:   3    -0.799529140234E+03    0.12041E-02   -0.27642E-02 16760   0.294E-01    0.832E-01
DAV:   4    -0.799528696650E+03    0.44358E-03   -0.48365E-03 16224   0.117E-01    0.640E-01
DAV:   5    -0.799528236481E+03    0.46017E-03   -0.18422E-03 16400   0.957E-02    0.201E-01
DAV:   6    -0.799528240672E+03   -0.41910E-05   -0.58681E-04 17184   0.498E-02    0.801E-02
DAV:   7    -0.799528238109E+03    0.25637E-05   -0.11086E-04 15360   0.205E-02    0.555E-02
DAV:   8    -0.799528237744E+03    0.36434E-06   -0.17490E-05 10064   0.104E-02
  31 F= -.79952824E+03 E0= -.79952824E+03  d E =-.103161E-01
 curvature:  -7.39 expect dE=-0.674E-01 dE for cont linesearch -0.188E-02
 ZBRENT: increasing intervall
 opt :   3.6858  next Energy=  -799.529620 (dE=-0.117E-01)
 bond charge predicted
       N       E                     dE             d eps       ncg     rms          rms(c)
DAV:   1    -0.799290440037E+03    0.23780E+00   -0.75262E+01 13832   0.162E+01    0.472E+00
DAV:   2    -0.799529347994E+03   -0.23891E+00   -0.26487E+00 15432   0.271E+00    0.233E+00
DAV:   3    -0.799527141453E+03    0.22065E-02   -0.93517E-02 17336   0.510E-01    0.161E+00
DAV:   4    -0.799526616750E+03    0.52470E-03   -0.17615E-02 16232   0.221E-01    0.127E+00
DAV:   5    -0.799524216101E+03    0.24006E-02   -0.80673E-03 16208   0.183E-01    0.379E-01
DAV:   6    -0.799524212665E+03    0.34358E-05   -0.23420E-03 17056   0.102E-01    0.176E-01
DAV:   7    -0.799524201813E+03    0.10852E-04   -0.43829E-04 15800   0.398E-02    0.121E-01
DAV:   8    -0.799524199296E+03    0.25176E-05   -0.80134E-05 15032   0.208E-02
  32 F= -.79952420E+03 E0= -.79952420E+03  d E =-.627768E-02
 curvature:  -5.42 expect dE=-0.231E+00 dE for cont linesearch -0.653E-02
 ZBRENT: bracketing found
 ZBRENT: interpolating
 opt :   2.1713  next Energy=  -799.529734 (dE=-0.118E-01)
 bond charge predicted
       N       E                     dE             d eps       ncg     rms          rms(c)
DAV:   1    -0.799420971321E+03    0.10323E+00   -0.35314E+01 13832   0.111E+01    0.327E+00
DAV:   2    -0.799532354865E+03   -0.11138E+00   -0.12387E+00 15392   0.186E+00    0.159E+00
DAV:   3    -0.799531453698E+03    0.90117E-03   -0.42616E-02 17232   0.345E-01    0.110E+00
DAV:   4    -0.799531246835E+03    0.20686E-03   -0.85456E-03 16104   0.156E-01    0.843E-01
DAV:   5    -0.799530125236E+03    0.11216E-02   -0.37747E-03 16160   0.121E-01    0.273E-01
DAV:   6    -0.799530107140E+03    0.18096E-04   -0.10382E-03 17064   0.669E-02    0.112E-01
DAV:   7    -0.799530107923E+03   -0.78331E-06   -0.18070E-04 15352   0.257E-02    0.744E-02
DAV:   8    -0.799530108033E+03   -0.11000E-06   -0.43307E-05 13760   0.151E-02
  33 F= -.79953011E+03 E0= -.79953011E+03  d E =-.121864E-01
 curvature:  -1.24 expect dE=-0.188E-01 dE for cont linesearch -0.107E-04
 trial: gam= 1.39231 g(F)=  0.151E-01 g(S)=  0.000E+00 ort = 0.788E-03 (trialstep = 0.335E+00)
 search vector abs. value=  0.158E+00
 bond charge predicted
       N       E                     dE             d eps       ncg     rms          rms(c)
DAV:   1    -0.799523685239E+03    0.64227E-02   -0.36889E+00 13832   0.351E+00    0.111E+00
DAV:   2    -0.799535519530E+03   -0.11834E-01   -0.13320E-01 15408   0.600E-01    0.583E-01
DAV:   3    -0.799535375873E+03    0.14366E-03   -0.50309E-03 16760   0.121E-01    0.397E-01
DAV:   4    -0.799535375054E+03    0.81954E-06   -0.99323E-04 16160   0.520E-02    0.308E-01
DAV:   5    -0.799535241609E+03    0.13344E-03   -0.44023E-04 15232   0.435E-02    0.897E-02
DAV:   6    -0.799535240432E+03    0.11778E-05   -0.12011E-04 15648   0.222E-02    0.408E-02
DAV:   7    -0.799535239237E+03    0.11947E-05   -0.18571E-05  9712   0.888E-03
  34 F= -.79953524E+03 E0= -.79953524E+03  d E =-.513120E-02
 ZBRENT: can't locate minimum, use default step
 trial-energy change:   -0.005131  1 .order   -0.005054   -0.005430   -0.004678
 step:   1.3392(harm=  2.4157)  dis= 0.03685  next Energy=  -799.549699 (dE=-0.196E-01)
 bond charge predicted
       N       E                     dE             d eps       ncg     rms          rms(c)
DAV:   1    -0.799436104586E+03    0.99136E-01   -0.33205E+01 13832   0.105E+01    0.326E+00
DAV:   2    -0.799545897945E+03   -0.10979E+00   -0.12104E+00 15368   0.179E+00    0.172E+00
DAV:   3    -0.799545126591E+03    0.77135E-03   -0.40886E-02 17224   0.336E-01    0.118E+00
DAV:   4    -0.799545377821E+03   -0.25123E-03   -0.85686E-03 16208   0.153E-01    0.923E-01
DAV:   5    -0.799544049339E+03    0.13285E-02   -0.42881E-03 16152   0.127E-01    0.265E-01
DAV:   6    -0.799544048931E+03    0.40731E-06   -0.10965E-03 16904   0.671E-02    0.125E-01
DAV:   7    -0.799544042303E+03    0.66286E-05   -0.16994E-04 15656   0.250E-02    0.878E-02
DAV:   8    -0.799544040518E+03    0.17845E-05   -0.37752E-05 12592   0.147E-02
  35 F= -.79954404E+03 E0= -.79954404E+03  d E =-.139325E-01
 curvature:  -8.60 expect dE=-0.128E+00 dE for cont linesearch -0.265E-03
 trial: gam= 0.31789 g(F)=  0.149E-01 g(S)=  0.000E+00 ort = 0.220E-02 (trialstep = 0.536E+00)
 search vector abs. value=  0.322E-01
 bond charge predicted
       N       E                     dE             d eps       ncg     rms          rms(c)
DAV:   1    -0.799545179729E+03   -0.11374E-02   -0.19744E+00 13832   0.262E+00    0.950E-01
DAV:   2    -0.799551555173E+03   -0.63754E-02   -0.70857E-02 15488   0.448E-01    0.515E-01
DAV:   3    -0.799551537813E+03    0.17360E-04   -0.24311E-03 16928   0.868E-02    0.333E-01
DAV:   4    -0.799551597921E+03   -0.60108E-04   -0.79572E-04 16152   0.493E-02    0.226E-01
DAV:   5    -0.799551484268E+03    0.11365E-03   -0.40940E-04 15208   0.349E-02    0.662E-02
DAV:   6    -0.799551475742E+03    0.85261E-05   -0.79917E-05 14608   0.197E-02
  36 F= -.79955148E+03 E0= -.79955148E+03  d E =-.743522E-02
 ZBRENT: can't locate minimum, use default step
 trial-energy change:   -0.007435  1 .order   -0.007416   -0.008357   -0.006475
 step:   2.1427(harm=  2.3788)  dis= 0.02433  next Energy=  -799.562596 (dE=-0.186E-01)
 bond charge predicted
       N       E                     dE             d eps       ncg     rms          rms(c)
DAV:   1    -0.799505180979E+03    0.46303E-01   -0.17770E+01 13832   0.787E+00    0.283E+00
DAV:   2    -0.799563348734E+03   -0.58168E-01   -0.63993E-01 15496   0.134E+00    0.155E+00
DAV:   3    -0.799563152750E+03    0.19598E-03   -0.20863E-02 17144   0.252E-01    0.997E-01
DAV:   4    -0.799563715176E+03   -0.56243E-03   -0.68420E-03 16144   0.143E-01    0.681E-01
DAV:   5    -0.799562668268E+03    0.10469E-02   -0.37877E-03 16048   0.105E-01    0.199E-01
DAV:   6    -0.799562599078E+03    0.69189E-04   -0.68780E-04 17224   0.558E-02    0.954E-02
DAV:   7    -0.799562598550E+03    0.52795E-06   -0.12461E-04 14824   0.208E-02    0.582E-02
DAV:   8    -0.799562597074E+03    0.14764E-05   -0.36333E-05 12880   0.150E-02
  37 F= -.79956260E+03 E0= -.79956260E+03  d E =-.185566E-01
 curvature:  -2.42 expect dE=-0.367E-01 dE for cont linesearch -0.173E-03
 trial: gam= 0.84131 g(F)=  0.152E-01 g(S)=  0.000E+00 ort = 0.152E-02 (trialstep = 0.681E+00)
 search vector abs. value=  0.405E-01
 bond charge predicted
       N       E                     dE             d eps       ncg     rms          rms(c)
DAV:   1    -0.799559406072E+03    0.31925E-02   -0.40885E+00 13832   0.379E+00    0.125E+00
DAV:   2    -0.799571823019E+03   -0.12417E-01   -0.13920E-01 15512   0.638E-01    0.621E-01
DAV:   3    -0.799571780163E+03    0.42856E-04   -0.47618E-03 17312   0.125E-01    0.406E-01
DAV:   4    -0.799571748217E+03    0.31947E-04   -0.10606E-03 16256   0.605E-02    0.243E-01
DAV:   5    -0.799571694034E+03    0.54182E-04   -0.53566E-04 15832   0.409E-02    0.880E-02
DAV:   6    -0.799571665709E+03    0.28326E-04   -0.20175E-04 15960   0.271E-02    0.431E-02
DAV:   7    -0.799571663393E+03    0.23155E-05   -0.31575E-05 12096   0.111E-02
  38 F= -.79957166E+03 E0= -.79957166E+03  d E =-.906632E-02
 trial-energy change:   -0.009066  1 .order   -0.009064   -0.011208   -0.006920
 step:   1.7813(harm=  1.7813)  dis= 0.02709  next Energy=  -799.577247 (dE=-0.146E-01)
 bond charge predicted
       N       E                     dE             d eps       ncg     rms          rms(c)
DAV:   1    -0.799545015800E+03    0.26650E-01   -0.10656E+01 13832   0.612E+00    0.201E+00
DAV:   2    -0.799577619288E+03   -0.32603E-01   -0.36352E-01 15528   0.103E+00    0.100E+00
DAV:   3    -0.799577503689E+03    0.11560E-03   -0.12118E-02 17376   0.199E-01    0.654E-01
DAV:   4    -0.799577386842E+03    0.11685E-03   -0.25750E-03 16264   0.951E-02    0.381E-01
DAV:   5    -0.799577285304E+03    0.10154E-03   -0.13082E-03 16872   0.639E-02    0.131E-01
DAV:   6    -0.799577221424E+03    0.63880E-04   -0.51619E-04 16040   0.416E-02    0.667E-02
DAV:   7    -0.799577214230E+03    0.71936E-05   -0.79499E-05 14536   0.172E-02
  39 F= -.79957721E+03 E0= -.79957721E+03  d E =-.146172E-01
 curvature:  -2.20 expect dE=-0.351E-01 dE for cont linesearch -0.451E-05
 trial: gam= 1.09081 g(F)=  0.160E-01 g(S)=  0.000E+00 ort =-0.289E-03 (trialstep = 0.574E+00)
 search vector abs. value=  0.636E-01
 bond charge predicted
       N       E                     dE             d eps       ncg     rms          rms(c)
DAV:   1    -0.799570816919E+03    0.64045E-02   -0.46246E+00 13832   0.401E+00    0.123E+00
DAV:   2    -0.799584455666E+03   -0.13639E-01   -0.15002E-01 15512   0.654E-01    0.616E-01
DAV:   3    -0.799584368060E+03    0.87607E-04   -0.45813E-03 17672   0.121E-01    0.398E-01
DAV:   4    -0.799584314524E+03    0.53535E-04   -0.91531E-04 16328   0.576E-02    0.229E-01
DAV:   5    -0.799584263896E+03    0.50628E-04   -0.49370E-04 16512   0.385E-02    0.731E-02
DAV:   6    -0.799584247455E+03    0.16441E-04   -0.14127E-04 14968   0.234E-02    0.340E-02
DAV:   7    -0.799584246797E+03    0.65837E-06   -0.20519E-05 10184   0.951E-03
  40 F= -.79958425E+03 E0= -.79958425E+03  d E =-.703257E-02
 trial-energy change:   -0.007033  1 .order   -0.006989   -0.009015   -0.004962
 step:   1.1941(harm=  1.2777)  dis= 0.02321  next Energy=  -799.586979 (dE=-0.976E-02)
 bond charge predicted
       N       E                     dE             d eps       ncg     rms          rms(c)
DAV:   1    -0.799571571793E+03    0.12676E-01   -0.53850E+00 13832   0.433E+00    0.132E+00
DAV:   2    -0.799587452403E+03   -0.15881E-01   -0.17432E-01 15496   0.704E-01    0.663E-01
DAV:   3    -0.799587346819E+03    0.10558E-03   -0.52903E-03 17736   0.130E-01    0.430E-01
DAV:   4    -0.799587283196E+03    0.63623E-04   -0.10741E-03 16320   0.627E-02    0.248E-01
DAV:   5    -0.799587219584E+03    0.63612E-04   -0.57380E-04 16576   0.427E-02    0.821E-02
DAV:   6    -0.799587200638E+03    0.18947E-04   -0.16486E-04 16016   0.261E-02    0.362E-02
DAV:   7    -0.799587200109E+03    0.52879E-06   -0.22812E-05 10408   0.102E-02
  41 F= -.79958720E+03 E0= -.79958720E+03  d E =-.998588E-02
 curvature:  -2.55 expect dE=-0.275E-01 dE for cont linesearch -0.211E-04
 trial: gam= 0.45772 g(F)=  0.108E-01 g(S)=  0.000E+00 ort = 0.724E-03 (trialstep = 0.698E+00)
 search vector abs. value=  0.247E-01
 writing wavefunctions
