  20  20   0   0
  0.1308864E+02  0.6979894E-09  0.6979894E-09  0.6979894E-09  0.5000000E-15
  1.000000000000000E-004
  CAR 
 unknown system                          
     14.72412276    -54.22027796  301      7.30202979      1.00000000
    -54.220  0.0000E+00  0.0000E+00
    -53.990  0.0000E+00  0.0000E+00
    -53.761  0.0000E+00  0.0000E+00
    -53.531  0.0000E+00  0.0000E+00
    -53.301  0.0000E+00  0.0000E+00
    -53.071  0.0000E+00  0.0000E+00
    -52.841  0.0000E+00  0.0000E+00
    -52.612  0.0000E+00  0.0000E+00
    -52.382  0.0000E+00  0.0000E+00
    -52.152  0.0000E+00  0.0000E+00
    -51.922  0.0000E+00  0.0000E+00
    -51.692  0.0000E+00  0.0000E+00
    -51.463  0.0000E+00  0.0000E+00
    -51.233  0.0000E+00  0.0000E+00
    -51.003  0.0000E+00  0.2000E+01
    -50.773  0.0000E+00  0.2000E+01
    -50.543  0.0000E+00  0.2000E+01
    -50.313  0.0000E+00  0.2000E+01
    -50.084  0.0000E+00  0.2000E+01
    -49.854  0.0000E+00  0.2000E+01
    -49.624  0.0000E+00  0.2000E+01
    -49.394  0.0000E+00  0.8000E+01
    -49.164  0.0000E+00  0.8000E+01
    -48.935  0.0000E+00  0.8000E+01
    -48.705  0.0000E+00  0.8000E+01
    -48.475  0.0000E+00  0.8000E+01
    -48.245  0.0000E+00  0.8000E+01
    -48.015  0.0000E+00  0.8000E+01
    -47.785  0.0000E+00  0.8000E+01
    -47.556  0.0000E+00  0.8000E+01
    -47.326  0.0000E+00  0.8000E+01
    -47.096  0.0000E+00  0.8000E+01
    -46.866  0.0000E+00  0.8000E+01
    -46.636  0.0000E+00  0.8000E+01
    -46.407  0.0000E+00  0.8000E+01
    -46.177  0.0000E+00  0.8000E+01
    -45.947  0.0000E+00  0.8000E+01
    -45.717  0.0000E+00  0.8000E+01
    -45.487  0.0000E+00  0.8000E+01
    -45.258  0.0000E+00  0.8000E+01
    -45.028  0.0000E+00  0.8000E+01
    -44.798  0.0000E+00  0.8000E+01
    -44.568  0.0000E+00  0.8000E+01
    -44.338  0.0000E+00  0.8000E+01
    -44.108  0.0000E+00  0.8000E+01
    -43.879  0.0000E+00  0.8000E+01
    -43.649  0.0000E+00  0.8000E+01
    -43.419  0.0000E+00  0.8000E+01
    -43.189  0.0000E+00  0.8000E+01
    -42.959  0.0000E+00  0.8000E+01
    -42.730  0.0000E+00  0.8000E+01
    -42.500  0.0000E+00  0.8000E+01
    -42.270  0.0000E+00  0.8000E+01
    -42.040  0.0000E+00  0.8000E+01
    -41.810  0.0000E+00  0.8000E+01
    -41.580  0.0000E+00  0.8000E+01
    -41.351  0.0000E+00  0.8000E+01
    -41.121  0.0000E+00  0.8000E+01
    -40.891  0.0000E+00  0.8000E+01
    -40.661  0.0000E+00  0.8000E+01
    -40.431  0.0000E+00  0.8000E+01
    -40.202  0.0000E+00  0.8000E+01
    -39.972  0.0000E+00  0.8000E+01
    -39.742  0.0000E+00  0.8000E+01
    -39.512  0.0000E+00  0.8000E+01
    -39.282  0.0000E+00  0.8000E+01
    -39.053  0.0000E+00  0.8000E+01
    -38.823  0.0000E+00  0.8000E+01
    -38.593  0.0000E+00  0.8000E+01
    -38.363  0.0000E+00  0.8000E+01
    -38.133  0.0000E+00  0.8000E+01
    -37.903  0.0000E+00  0.8000E+01
    -37.674  0.0000E+00  0.8000E+01
    -37.444  0.0000E+00  0.8000E+01
    -37.214  0.0000E+00  0.8000E+01
    -36.984  0.0000E+00  0.8000E+01
    -36.754  0.0000E+00  0.8000E+01
    -36.525  0.0000E+00  0.8000E+01
    -36.295  0.0000E+00  0.8000E+01
    -36.065  0.0000E+00  0.8000E+01
    -35.835  0.0000E+00  0.8000E+01
    -35.605  0.0000E+00  0.8000E+01
    -35.375  0.0000E+00  0.8000E+01
    -35.146  0.0000E+00  0.8000E+01
    -34.916  0.0000E+00  0.8000E+01
    -34.686  0.0000E+00  0.8000E+01
    -34.456  0.0000E+00  0.8000E+01
    -34.226  0.0000E+00  0.8000E+01
    -33.997  0.0000E+00  0.8000E+01
    -33.767  0.0000E+00  0.8000E+01
    -33.537  0.0000E+00  0.8000E+01
    -33.307  0.0000E+00  0.8000E+01
    -33.077  0.0000E+00  0.8000E+01
    -32.848  0.0000E+00  0.8000E+01
    -32.618  0.0000E+00  0.8000E+01
    -32.388  0.0000E+00  0.8000E+01
    -32.158  0.0000E+00  0.8000E+01
    -31.928  0.0000E+00  0.8000E+01
    -31.698  0.0000E+00  0.8000E+01
    -31.469  0.0000E+00  0.8000E+01
    -31.239  0.0000E+00  0.8000E+01
    -31.009  0.0000E+00  0.8000E+01
    -30.779  0.0000E+00  0.8000E+01
    -30.549  0.0000E+00  0.8000E+01
    -30.320  0.0000E+00  0.8000E+01
    -30.090  0.0000E+00  0.8000E+01
    -29.860  0.0000E+00  0.8000E+01
    -29.630  0.0000E+00  0.8000E+01
    -29.400  0.0000E+00  0.8000E+01
    -29.170  0.0000E+00  0.8000E+01
    -28.941  0.3343E+03  0.1205E+02
    -28.711  0.0000E+00  0.1600E+02
    -28.481  0.0000E+00  0.1600E+02
    -28.251  0.0000E+00  0.1600E+02
    -28.021  0.0000E+00  0.1600E+02
    -27.792  0.0000E+00  0.1600E+02
    -27.562  0.0000E+00  0.1600E+02
    -27.332  0.0000E+00  0.2200E+02
    -27.102  0.0000E+00  0.2200E+02
    -26.872  0.0000E+00  0.2200E+02
    -26.643  0.0000E+00  0.2200E+02
    -26.413  0.0000E+00  0.2200E+02
    -26.183  0.0000E+00  0.2200E+02
    -25.953  0.0000E+00  0.2200E+02
    -25.723  0.8742E+02  0.3123E+02
    -25.493  0.0000E+00  0.4000E+02
    -25.264  0.0000E+00  0.4000E+02
    -25.034  0.0000E+00  0.4000E+02
    -24.804  0.0000E+00  0.4000E+02
    -24.574  0.0000E+00  0.4000E+02
    -24.344  0.0000E+00  0.4000E+02
    -24.115  0.0000E+00  0.4000E+02
    -23.885  0.0000E+00  0.4000E+02
    -23.655  0.0000E+00  0.4000E+02
    -23.425  0.0000E+00  0.4000E+02
    -23.195  0.0000E+00  0.4000E+02
    -22.965  0.0000E+00  0.4000E+02
    -22.736  0.0000E+00  0.4000E+02
    -22.506  0.0000E+00  0.4000E+02
    -22.276  0.0000E+00  0.4000E+02
    -22.046  0.0000E+00  0.4000E+02
    -21.816  0.0000E+00  0.4000E+02
    -21.587  0.0000E+00  0.4000E+02
    -21.357  0.0000E+00  0.4000E+02
    -21.127  0.0000E+00  0.4000E+02
    -20.897  0.0000E+00  0.4000E+02
    -20.667  0.0000E+00  0.4000E+02
    -20.438  0.0000E+00  0.4000E+02
    -20.208  0.0000E+00  0.4000E+02
    -19.978  0.0000E+00  0.4000E+02
    -19.748  0.0000E+00  0.4000E+02
    -19.518  0.0000E+00  0.4000E+02
    -19.288  0.0000E+00  0.4000E+02
    -19.059  0.0000E+00  0.4000E+02
    -18.829  0.0000E+00  0.4000E+02
    -18.599  0.0000E+00  0.4000E+02
    -18.369  0.0000E+00  0.4000E+02
    -18.139  0.0000E+00  0.4000E+02
    -17.910  0.0000E+00  0.4000E+02
    -17.680  0.0000E+00  0.4000E+02
    -17.450  0.0000E+00  0.4000E+02
    -17.220  0.0000E+00  0.4000E+02
    -16.990  0.0000E+00  0.4000E+02
    -16.760  0.0000E+00  0.4000E+02
    -16.531  0.0000E+00  0.4000E+02
    -16.301  0.0000E+00  0.4000E+02
    -16.071  0.0000E+00  0.4000E+02
    -15.841  0.0000E+00  0.4000E+02
    -15.611  0.0000E+00  0.4000E+02
    -15.382  0.0000E+00  0.4000E+02
    -15.152  0.0000E+00  0.4000E+02
    -14.922  0.0000E+00  0.4000E+02
    -14.692  0.0000E+00  0.4000E+02
    -14.462  0.0000E+00  0.4000E+02
    -14.233  0.0000E+00  0.4000E+02
    -14.003  0.0000E+00  0.4000E+02
    -13.773  0.0000E+00  0.4000E+02
    -13.543  0.0000E+00  0.4000E+02
    -13.313  0.2321E+01  0.4007E+02
    -13.083  0.6423E+01  0.4214E+02
    -12.854  0.9668E+01  0.4399E+02
    -12.624  0.2924E+01  0.4610E+02
    -12.394  0.1415E+02  0.4879E+02
    -12.164  0.2334E+02  0.5268E+02
    -11.934  0.2531E+02  0.5857E+02
    -11.705  0.1389E+02  0.6306E+02
    -11.475  0.0000E+00  0.6400E+02
    -11.245  0.0000E+00  0.6400E+02
    -11.015  0.2356E+02  0.6486E+02
    -10.785  0.3401E+02  0.7583E+02
    -10.555  0.2249E+02  0.8512E+02
    -10.326  0.0000E+00  0.8800E+02
    -10.096  0.0000E+00  0.8800E+02
     -9.866  0.0000E+00  0.8800E+02
     -9.636  0.0000E+00  0.8800E+02
     -9.406  0.0000E+00  0.8800E+02
     -9.177  0.0000E+00  0.8800E+02
     -8.947  0.0000E+00  0.8800E+02
     -8.717  0.0000E+00  0.8800E+02
     -8.487  0.0000E+00  0.8800E+02
     -8.257  0.0000E+00  0.8800E+02
     -8.028  0.0000E+00  0.8800E+02
     -7.798  0.0000E+00  0.8800E+02
     -7.568  0.0000E+00  0.8800E+02
     -7.338  0.0000E+00  0.8800E+02
     -7.108  0.0000E+00  0.8800E+02
     -6.878  0.0000E+00  0.8800E+02
     -6.649  0.0000E+00  0.8800E+02
     -6.419  0.0000E+00  0.8800E+02
     -6.189  0.0000E+00  0.8800E+02
     -5.959  0.0000E+00  0.8800E+02
     -5.729  0.0000E+00  0.8800E+02
     -5.500  0.0000E+00  0.8800E+02
     -5.270  0.0000E+00  0.8800E+02
     -5.040  0.0000E+00  0.8800E+02
     -4.810  0.0000E+00  0.8800E+02
     -4.580  0.0000E+00  0.8800E+02
     -4.350  0.0000E+00  0.8800E+02
     -4.121  0.0000E+00  0.8800E+02
     -3.891  0.0000E+00  0.8800E+02
     -3.661  0.0000E+00  0.8800E+02
     -3.431  0.0000E+00  0.8800E+02
     -3.201  0.0000E+00  0.8800E+02
     -2.972  0.0000E+00  0.8800E+02
     -2.742  0.0000E+00  0.8800E+02
     -2.512  0.0000E+00  0.8800E+02
     -2.282  0.0000E+00  0.8800E+02
     -2.052  0.0000E+00  0.8800E+02
     -1.823  0.0000E+00  0.8800E+02
     -1.593  0.0000E+00  0.8800E+02
     -1.363  0.0000E+00  0.8800E+02
     -1.133  0.0000E+00  0.8800E+02
     -0.903  0.0000E+00  0.8800E+02
     -0.673  0.6847E+01  0.8870E+02
     -0.444  0.6634E+01  0.9044E+02
     -0.214  0.7754E+01  0.9198E+02
      0.016  0.1444E+02  0.9433E+02
      0.246  0.1417E+02  0.9827E+02
      0.476  0.1399E+02  0.1027E+03
      0.705  0.1292E+02  0.1059E+03
      0.935  0.1984E+02  0.1094E+03
      1.165  0.1312E+02  0.1138E+03
      1.395  0.2055E+02  0.1170E+03
      1.625  0.2773E+02  0.1220E+03
      1.855  0.1292E+02  0.1270E+03
      2.084  0.1078E+02  0.1294E+03
      2.314  0.1973E+02  0.1326E+03
      2.544  0.1134E+02  0.1357E+03
      2.774  0.1814E+02  0.1390E+03
      3.004  0.3499E+02  0.1441E+03
      3.233  0.3041E+02  0.1493E+03
      3.463  0.7255E+01  0.1535E+03
      3.693  0.1141E+02  0.1569E+03
      3.923  0.9434E+01  0.1595E+03
      4.153  0.0000E+00  0.1600E+03
      4.382  0.0000E+00  0.1600E+03
      4.612  0.0000E+00  0.1600E+03
      4.842  0.0000E+00  0.1600E+03
      5.072  0.0000E+00  0.1600E+03
      5.302  0.0000E+00  0.1600E+03
      5.532  0.0000E+00  0.1600E+03
      5.761  0.0000E+00  0.1600E+03
      5.991  0.0000E+00  0.1600E+03
      6.221  0.0000E+00  0.1600E+03
      6.451  0.1597E+00  0.1600E+03
      6.681  0.2535E+01  0.1603E+03
      6.910  0.4130E+01  0.1611E+03
      7.140  0.4784E+01  0.1621E+03
      7.370  0.1250E+02  0.1635E+03
      7.600  0.4223E+01  0.1652E+03
      7.830  0.2252E+01  0.1659E+03
      8.059  0.1538E+02  0.1668E+03
      8.289  0.1097E+02  0.1695E+03
      8.519  0.1512E+02  0.1720E+03
      8.749  0.1984E+02  0.1758E+03
      8.979  0.6883E+01  0.1792E+03
      9.209  0.9350E+01  0.1813E+03
      9.438  0.5521E+01  0.1831E+03
      9.668  0.2298E+01  0.1841E+03
      9.898  0.4873E+01  0.1847E+03
     10.128  0.6938E+01  0.1862E+03
     10.358  0.7437E+01  0.1879E+03
     10.587  0.1003E+02  0.1899E+03
     10.817  0.1062E+02  0.1922E+03
     11.047  0.3475E+02  0.1952E+03
     11.277  0.6192E+01  0.1982E+03
     11.507  0.2881E+01  0.1999E+03
     11.737  0.0000E+00  0.2000E+03
     11.966  0.0000E+00  0.2000E+03
     12.196  0.0000E+00  0.2000E+03
     12.426  0.0000E+00  0.2000E+03
     12.656  0.0000E+00  0.2000E+03
     12.886  0.0000E+00  0.2000E+03
     13.115  0.0000E+00  0.2000E+03
     13.345  0.0000E+00  0.2000E+03
     13.575  0.0000E+00  0.2000E+03
     13.805  0.0000E+00  0.2000E+03
     14.035  0.0000E+00  0.2000E+03
     14.264  0.0000E+00  0.2000E+03
     14.494  0.0000E+00  0.2000E+03
     14.724  0.0000E+00  0.2000E+03
