 running on   40 total cores
 distrk:  each k-point on   40 cores,    1 groups
 distr:  one band on   10 cores,    4 groups
 using from now: INCAR     
 vasp.5.4.4.18Apr17-6-g9f103f2a35 (build Oct 23 2017 21:22:35) complex          
  
 POSCAR found type information on POSCAR  Nb O  Sr Ti
 POSCAR found :  4 types and      10 ions
 scaLAPACK will be used
 LDA part: xc-table for Pade appr. of Perdew
 POSCAR, INCAR and KPOINTS ok, starting setup
 FFT: planning ...
 WAVECAR not read
 WARNING: random wavefunctions but no delay for mixing, default for NELMDL
 entering main loop
       N       E                     dE             d eps       ncg     rms          rms(c)
DAV:   1     0.915110431102E+03    0.91511E+03   -0.41982E+04  1536   0.173E+03
DAV:   2     0.154786098509E+02   -0.89963E+03   -0.86601E+03  1872   0.539E+02
DAV:   3    -0.905105575348E+02   -0.10599E+03   -0.10513E+03  2080   0.177E+02
DAV:   4    -0.976702734959E+02   -0.71597E+01   -0.71182E+01  2640   0.449E+01
DAV:   5    -0.979780995019E+02   -0.30783E+00   -0.30716E+00  2152   0.643E+00    0.318E+01
DAV:   6    -0.813618671347E+02    0.16616E+02   -0.10542E+02  2184   0.593E+01    0.200E+01
DAV:   7    -0.815205273575E+02   -0.15866E+00   -0.16822E+01  2280   0.232E+01    0.129E+01
DAV:   8    -0.813721503649E+02    0.14838E+00   -0.41636E+00  2344   0.118E+01    0.689E+00
DAV:   9    -0.813313533773E+02    0.40797E-01   -0.70986E-01  2248   0.471E+00    0.110E+00
DAV:  10    -0.813238198454E+02    0.75335E-02   -0.10806E-01  2480   0.166E+00    0.571E-01
DAV:  11    -0.813260130923E+02   -0.21932E-02   -0.16988E-02  2224   0.912E-01    0.198E-01
DAV:  12    -0.813256961598E+02    0.31693E-03   -0.36347E-03  2216   0.465E-01    0.107E-01
DAV:  13    -0.813257361242E+02   -0.39964E-04   -0.52951E-04  2256   0.131E-01    0.276E-02
DAV:  14    -0.813257496122E+02   -0.13488E-04   -0.86189E-05  2048   0.552E-02    0.144E-02
DAV:  15    -0.813257497599E+02   -0.14776E-06   -0.65335E-06  1136   0.185E-02
   1 F= -.81325750E+02 E0= -.81325750E+02  d E =0.000000E+00
 writing wavefunctions
