       N       E                     dE             d eps       ncg     rms          rms(c)
DAV:   1     0.133967068699E+04    0.13397E+04   -0.64474E+04  3040   0.165E+03
DAV:   2     0.217886823158E+02   -0.13179E+04   -0.12676E+04  3632   0.529E+02
DAV:   3    -0.132701317957E+03   -0.15449E+03   -0.15198E+03  4132   0.176E+02
DAV:   4    -0.144425991674E+03   -0.11725E+02   -0.11618E+02  5320   0.471E+01
DAV:   5    -0.144936654336E+03   -0.51066E+00   -0.50658E+00  4736   0.760E+00    0.397E+01
DAV:   6    -0.122335801869E+03    0.22601E+02   -0.12814E+02  4256   0.530E+01    0.263E+01
DAV:   7    -0.123411051111E+03   -0.10752E+01   -0.56888E+01  4560   0.302E+01    0.185E+01
DAV:   8    -0.121696869298E+03    0.17142E+01   -0.50519E+00  4404   0.139E+01    0.955E+00
DAV:   9    -0.122462165239E+03   -0.76530E+00   -0.34437E+00  4672   0.873E+00    0.830E+00
DAV:  10    -0.121739925807E+03    0.72224E+00   -0.94713E+00  4148   0.965E+00    0.155E+00
DAV:  11    -0.121690234670E+03    0.49691E-01   -0.27906E-01  4536   0.225E+00    0.736E-01
DAV:  12    -0.121701057070E+03   -0.10822E-01   -0.69877E-02  4420   0.130E+00    0.836E-01
DAV:  13    -0.121689351722E+03    0.11705E-01   -0.47615E-02  4272   0.107E+00    0.196E-01
DAV:  14    -0.121689635609E+03   -0.28389E-03   -0.50114E-03  4572   0.257E-01    0.186E-01
DAV:  15    -0.121689387266E+03    0.24834E-03   -0.52294E-04  4640   0.104E-01    0.111E-01
DAV:  16    -0.121689235158E+03    0.15211E-03   -0.29542E-04  4460   0.748E-02    0.421E-02
DAV:  17    -0.121689282329E+03   -0.47171E-04   -0.61699E-05  3488   0.372E-02    0.475E-02
DAV:  18    -0.121689225780E+03    0.56549E-04   -0.76304E-05  3152   0.427E-02    0.638E-03
DAV:  19    -0.121689222384E+03    0.33957E-05   -0.62048E-06  2368   0.116E-02
   1 F= -.12168922E+03 E0= -.12168922E+03  d E =-.121689E+03
       N       E                     dE             d eps       ncg     rms          rms(c)
DAV:   1    -0.135085913598E+03   -0.13397E+02   -0.44538E+02  3784   0.117E+02    0.339E+01
DAV:   2    -0.128719744524E+03    0.63662E+01   -0.12459E+02  4376   0.479E+01    0.153E+01
DAV:   3    -0.122380508271E+03    0.63392E+01   -0.15165E+01  4424   0.229E+01    0.934E+00
DAV:   4    -0.121662545591E+03    0.71796E+00   -0.50299E+00  4600   0.992E+00    0.792E+00
DAV:   5    -0.121864517339E+03   -0.20197E+00   -0.64034E+00  4324   0.844E+00    0.647E+00
DAV:   6    -0.121608607634E+03    0.25591E+00   -0.97279E-01  4368   0.564E+00    0.392E+00
DAV:   7    -0.121631012404E+03   -0.22405E-01   -0.48870E-01  5228   0.262E+00    0.159E+00
DAV:   8    -0.121640870806E+03   -0.98584E-02   -0.16554E-01  4556   0.142E+00    0.884E-01
DAV:   9    -0.121634620800E+03    0.62500E-02   -0.41141E-02  4472   0.834E-01    0.458E-01
DAV:  10    -0.121636259045E+03   -0.16382E-02   -0.15493E-02  4616   0.473E-01    0.371E-01
DAV:  11    -0.121636354717E+03   -0.95672E-04   -0.10245E-02  4280   0.466E-01    0.197E-01
DAV:  12    -0.121635925818E+03    0.42890E-03   -0.12674E-03  4916   0.140E-01    0.845E-02
DAV:  13    -0.121635815997E+03    0.10982E-03   -0.34795E-04  4684   0.749E-02    0.418E-02
DAV:  14    -0.121635822733E+03   -0.67359E-05   -0.50335E-05  3508   0.276E-02
   2 F= -.12163582E+03 E0= -.12163582E+03  d E =0.533997E-01
       N       E                     dE             d eps       ncg     rms          rms(c)
DAV:   1    -0.126061785712E+03   -0.44260E+01   -0.12489E+02  3808   0.603E+01    0.167E+01
DAV:   2    -0.123018631417E+03    0.30432E+01   -0.14195E+01  3700   0.185E+01    0.658E+00
DAV:   3    -0.123168425526E+03   -0.14979E+00   -0.12592E+01  4528   0.145E+01    0.590E+00
DAV:   4    -0.122298068075E+03    0.87036E+00   -0.13251E+00  4204   0.678E+00    0.269E+00
DAV:   5    -0.122135953865E+03    0.16211E+00   -0.41533E-01  5272   0.337E+00    0.117E+00
DAV:   6    -0.122159989329E+03   -0.24035E-01   -0.12524E-01  4400   0.120E+00    0.947E-01
DAV:   7    -0.122169932880E+03   -0.99436E-02   -0.27146E-02  5480   0.575E-01    0.693E-01
DAV:   8    -0.122186910497E+03   -0.16978E-01   -0.44751E-02  4588   0.917E-01    0.680E-01
DAV:   9    -0.122180584561E+03    0.63259E-02   -0.38917E-02  4864   0.858E-01    0.190E-01
DAV:  10    -0.122180335672E+03    0.24889E-03   -0.32582E-03  4484   0.200E-01    0.126E-01
DAV:  11    -0.122180323092E+03    0.12580E-04   -0.14253E-03  4480   0.165E-01    0.600E-02
DAV:  12    -0.122180313143E+03    0.99486E-05   -0.30726E-04  4532   0.734E-02    0.371E-02
DAV:  13    -0.122180304976E+03    0.81672E-05   -0.33397E-05  2944   0.263E-02
   3 F= -.12218030E+03 E0= -.12218030E+03  d E =-.491083E+00
       N       E                     dE             d eps       ncg     rms          rms(c)
DAV:   1    -0.122180957004E+03   -0.64386E-03   -0.18227E-02  3800   0.744E-01    0.198E-01
DAV:   2    -0.122180661525E+03    0.29548E-03   -0.27616E-03  3960   0.259E-01    0.119E-01
DAV:   3    -0.122180598829E+03    0.62696E-04   -0.21250E-03  4156   0.199E-01    0.126E-01
DAV:   4    -0.122180381460E+03    0.21737E-03   -0.66230E-04  3984   0.121E-01    0.247E-02
DAV:   5    -0.122180387163E+03   -0.57027E-05   -0.51331E-05  3972   0.298E-02
   4 F= -.12218039E+03 E0= -.12218039E+03  d E =-.491165E+00
       N       E                     dE             d eps       ncg     rms          rms(c)
DAV:   1    -0.122222678699E+03   -0.42297E-01   -0.60799E+00  3208   0.754E+00    0.998E-01
DAV:   2    -0.122237919457E+03   -0.15241E-01   -0.22740E-01  4024   0.197E+00    0.976E-01
DAV:   3    -0.122230739036E+03    0.71804E-02   -0.56402E-02  4640   0.106E+00    0.528E-01
DAV:   4    -0.122229397790E+03    0.13412E-02   -0.10576E-02  4732   0.437E-01    0.265E-01
DAV:   5    -0.122229097517E+03    0.30027E-03   -0.18695E-03  4704   0.190E-01    0.803E-02
DAV:   6    -0.122229146024E+03   -0.48507E-04   -0.37812E-04  4952   0.706E-02    0.407E-02
DAV:   7    -0.122229148570E+03   -0.25458E-05   -0.40229E-05  3392   0.313E-02
   5 F= -.12222915E+03 E0= -.12222915E+03  d E =-.487614E-01
       N       E                     dE             d eps       ncg     rms          rms(c)
DAV:   1    -0.122219074086E+03    0.10072E-01   -0.39818E+01  3136   0.195E+01    0.274E+00
DAV:   2    -0.122358300090E+03   -0.13923E+00   -0.18545E+00  4032   0.550E+00    0.276E+00
DAV:   3    -0.122277942233E+03    0.80358E-01   -0.38607E-01  4664   0.302E+00    0.134E+00
DAV:   4    -0.122269388949E+03    0.85533E-02   -0.63607E-02  4696   0.109E+00    0.701E-01
DAV:   5    -0.122267894509E+03    0.14944E-02   -0.17547E-02  4784   0.575E-01    0.243E-01
DAV:   6    -0.122267306067E+03    0.58844E-03   -0.38361E-03  4824   0.236E-01    0.981E-02
DAV:   7    -0.122267356811E+03   -0.50743E-04   -0.39266E-04  4760   0.901E-02    0.482E-02
DAV:   8    -0.122267330488E+03    0.26323E-04   -0.77490E-05  3808   0.414E-02    0.157E-02
DAV:   9    -0.122267350944E+03   -0.20456E-04   -0.15572E-05  2376   0.214E-02    0.627E-03
DAV:  10    -0.122267345711E+03    0.52329E-05   -0.34704E-06  2156   0.103E-02
   6 F= -.12226735E+03 E0= -.12226735E+03  d E =-.869585E-01
       N       E                     dE             d eps       ncg     rms          rms(c)
DAV:   1    -0.122268948722E+03   -0.15978E-02   -0.14892E+00  3200   0.392E+00    0.523E-01
DAV:   2    -0.122275045732E+03   -0.60970E-02   -0.69425E-02  4048   0.109E+00    0.669E-01
DAV:   3    -0.122270750022E+03    0.42957E-02   -0.24982E-02  4412   0.628E-01    0.286E-01
DAV:   4    -0.122269584103E+03    0.11659E-02   -0.20382E-03  4768   0.198E-01    0.151E-01
DAV:   5    -0.122270141908E+03   -0.55781E-03   -0.38442E-04  4624   0.897E-02    0.380E-02
DAV:   6    -0.122270135423E+03    0.64856E-05   -0.74604E-05  4220   0.334E-02
   7 F= -.12227014E+03 E0= -.12227014E+03  d E =-.897483E-01
       N       E                     dE             d eps       ncg     rms          rms(c)
DAV:   1    -0.122256989836E+03    0.13152E-01   -0.12083E+01  3040   0.149E+01    0.133E+00
DAV:   2    -0.122296726820E+03   -0.39737E-01   -0.63268E-01  3848   0.388E+00    0.112E+00
DAV:   3    -0.122296466332E+03    0.26049E-03   -0.11424E-01  4820   0.150E+00    0.976E-01
DAV:   4    -0.122285727164E+03    0.10739E-01   -0.37443E-02  4408   0.816E-01    0.406E-01
DAV:   5    -0.122285001089E+03    0.72608E-03   -0.76698E-03  4880   0.391E-01    0.147E-01
DAV:   6    -0.122284831111E+03    0.16998E-03   -0.12715E-03  4916   0.154E-01    0.865E-02
DAV:   7    -0.122284858757E+03   -0.27645E-04   -0.16323E-04  4344   0.551E-02    0.447E-02
DAV:   8    -0.122284853111E+03    0.56453E-05   -0.43928E-05  3332   0.291E-02
   8 F= -.12228485E+03 E0= -.12228485E+03  d E =-.147177E-01
       N       E                     dE             d eps       ncg     rms          rms(c)
DAV:   1    -0.122284666621E+03    0.19214E-03   -0.87920E-01  3056   0.400E+00    0.368E-01
DAV:   2    -0.122288133013E+03   -0.34664E-02   -0.45255E-02  3928   0.104E+00    0.317E-01
DAV:   3    -0.122287322003E+03    0.81101E-03   -0.10041E-02  4500   0.424E-01    0.259E-01
DAV:   4    -0.122286916509E+03    0.40549E-03   -0.23325E-03  4236   0.223E-01    0.988E-02
DAV:   5    -0.122286881831E+03    0.34678E-04   -0.43483E-04  4636   0.926E-02    0.337E-02
DAV:   6    -0.122286903744E+03   -0.21913E-04   -0.69018E-05  4008   0.351E-02    0.209E-02
DAV:   7    -0.122286904996E+03   -0.12523E-05   -0.78009E-06  2208   0.169E-02
   9 F= -.12228690E+03 E0= -.12228690E+03  d E =-.167696E-01
       N       E                     dE             d eps       ncg     rms          rms(c)
DAV:   1    -0.122290008627E+03   -0.31049E-02   -0.27168E-01  3076   0.259E+00    0.376E-01
DAV:   2    -0.122288677381E+03    0.13312E-02   -0.14440E-02  3556   0.609E-01    0.201E-01
DAV:   3    -0.122288141988E+03    0.53539E-03   -0.47005E-03  4424   0.315E-01    0.243E-01
DAV:   4    -0.122287711620E+03    0.43037E-03   -0.31148E-03  4144   0.239E-01    0.673E-02
DAV:   5    -0.122287608984E+03    0.10264E-03   -0.30381E-04  4320   0.799E-02    0.381E-02
DAV:   6    -0.122287621118E+03   -0.12134E-04   -0.46691E-05  3648   0.281E-02    0.258E-02
DAV:   7    -0.122287610309E+03    0.10809E-04   -0.31114E-05  2940   0.243E-02    0.859E-03
DAV:   8    -0.122287613262E+03   -0.29529E-05   -0.54219E-06  1952   0.136E-02
  10 F= -.12228761E+03 E0= -.12228761E+03  d E =-.708266E-03
       N       E                     dE             d eps       ncg     rms          rms(c)
DAV:   1    -0.122287640055E+03   -0.29746E-04   -0.12400E-03  3160   0.176E-01    0.252E-02
DAV:   2    -0.122287632042E+03    0.80132E-05   -0.63606E-05  3232   0.416E-02
  11 F= -.12228763E+03 E0= -.12228763E+03  d E =-.727046E-03
       N       E                     dE             d eps       ncg     rms          rms(c)
DAV:   1    -0.122287655943E+03   -0.15888E-04   -0.48277E-03  3136   0.346E-01    0.590E-02
DAV:   2    -0.122287749993E+03   -0.94049E-04   -0.46286E-04  3960   0.108E-01    0.572E-02
DAV:   3    -0.122287583408E+03    0.16658E-03   -0.25315E-04  3668   0.679E-02    0.359E-02
DAV:   4    -0.122287587601E+03   -0.41926E-05   -0.60353E-05  3140   0.394E-02
  12 F= -.12228759E+03 E0= -.12228759E+03  d E =-.682605E-03
       N       E                     dE             d eps       ncg     rms          rms(c)
DAV:   1    -0.122287592570E+03   -0.91618E-05   -0.16110E-03  3148   0.199E-01    0.296E-02
DAV:   2    -0.122287590242E+03    0.23276E-05   -0.93473E-05  3436   0.482E-02
  13 F= -.12228759E+03 E0= -.12228759E+03  d E =-.685246E-03
       N       E                     dE             d eps       ncg     rms          rms(c)
DAV:   1    -0.122287632084E+03   -0.39514E-04   -0.41359E-04  3360   0.102E-01    0.275E-02
DAV:   2    -0.122287564366E+03    0.67718E-04   -0.18342E-04  3320   0.607E-02    0.479E-02
DAV:   3    -0.122287614602E+03   -0.50235E-04   -0.10508E-04  3084   0.448E-02    0.109E-02
DAV:   4    -0.122287609944E+03    0.46575E-05   -0.77150E-06  2136   0.152E-02
  14 F= -.12228761E+03 E0= -.12228761E+03  d E =-.704948E-03
       N       E                     dE             d eps       ncg     rms          rms(c)
DAV:   1    -0.122287608785E+03    0.58167E-05   -0.12599E-05  1864   0.211E-02    0.419E-03
DAV:   2    -0.122287607802E+03    0.98260E-06   -0.19619E-06  1668   0.102E-02
  15 F= -.12228761E+03 E0= -.12228761E+03  d E =-.702806E-03
       N       E                     dE             d eps       ncg     rms          rms(c)
DAV:   1    -0.122288334975E+03   -0.72619E-03   -0.14323E-01  3336   0.172E+00    0.217E-01
DAV:   2    -0.122288050754E+03    0.28422E-03   -0.73604E-03  3716   0.462E-01    0.153E-01
DAV:   3    -0.122288321328E+03   -0.27057E-03   -0.24389E-03  4144   0.216E-01    0.144E-01
DAV:   4    -0.122287834643E+03    0.48668E-03   -0.89633E-04  4100   0.138E-01    0.429E-02
DAV:   5    -0.122287857656E+03   -0.23013E-04   -0.13607E-04  4880   0.500E-02    0.249E-02
DAV:   6    -0.122287846834E+03    0.10822E-04   -0.10177E-05  2300   0.143E-02    0.200E-02
DAV:   7    -0.122287841179E+03    0.56548E-05   -0.80724E-06  2192   0.147E-02
  16 F= -.12228784E+03 E0= -.12228784E+03  d E =-.233377E-03
       N       E                     dE             d eps       ncg     rms          rms(c)
DAV:   1    -0.122287891635E+03   -0.44801E-04   -0.84287E-03  3336   0.417E-01    0.519E-02
DAV:   2    -0.122287824011E+03    0.67624E-04   -0.42320E-04  3688   0.112E-01    0.386E-02
DAV:   3    -0.122287912363E+03   -0.88352E-04   -0.14878E-04  3448   0.534E-02    0.362E-02
DAV:   4    -0.122287840783E+03    0.71580E-04   -0.49443E-05  2872   0.349E-02    0.994E-03
DAV:   5    -0.122287839417E+03    0.13662E-05   -0.73357E-06  2108   0.143E-02
  17 F= -.12228784E+03 E0= -.12228784E+03  d E =-.231615E-03
       N       E                     dE             d eps       ncg     rms          rms(c)
DAV:   1    -0.122287850291E+03   -0.95077E-05   -0.15621E-01  3056   0.152E+00    0.967E-02
DAV:   2    -0.122288175632E+03   -0.32534E-03   -0.37624E-03  3568   0.288E-01    0.681E-02
DAV:   3    -0.122288070169E+03    0.10546E-03   -0.28478E-04  4500   0.797E-02    0.621E-02
DAV:   4    -0.122288140264E+03   -0.70095E-04   -0.16004E-04  3768   0.557E-02    0.379E-02
DAV:   5    -0.122288091056E+03    0.49208E-04   -0.72708E-05  3484   0.430E-02    0.897E-03
DAV:   6    -0.122288096250E+03   -0.51939E-05   -0.12653E-05  2264   0.173E-02
  18 F= -.12228810E+03 E0= -.12228810E+03  d E =-.256833E-03
       N       E                     dE             d eps       ncg     rms          rms(c)
DAV:   1    -0.122287961055E+03    0.13000E-03   -0.12244E-01  3056   0.134E+00    0.852E-02
DAV:   2    -0.122288217122E+03   -0.25607E-03   -0.29380E-03  3556   0.254E-01    0.597E-02
DAV:   3    -0.122288135385E+03    0.81737E-04   -0.18570E-04  4276   0.648E-02    0.509E-02
DAV:   4    -0.122288209189E+03   -0.73804E-04   -0.12621E-04  3608   0.496E-02    0.360E-02
DAV:   5    -0.122288161698E+03    0.47491E-04   -0.61094E-05  3108   0.398E-02    0.858E-03
DAV:   6    -0.122288165847E+03   -0.41492E-05   -0.11032E-05  2236   0.175E-02
  19 F= -.12228817E+03 E0= -.12228817E+03  d E =-.326430E-03
       N       E                     dE             d eps       ncg     rms          rms(c)
DAV:   1    -0.122288136933E+03    0.24764E-04   -0.69507E-03  3072   0.394E-01    0.364E-02
DAV:   2    -0.122288151778E+03   -0.14845E-04   -0.45115E-04  3580   0.947E-02    0.241E-02
DAV:   3    -0.122288202500E+03   -0.50722E-04   -0.48194E-05  3268   0.350E-02    0.218E-02
DAV:   4    -0.122288155616E+03    0.46884E-04   -0.30980E-05  2440   0.267E-02    0.118E-02
DAV:   5    -0.122288171094E+03   -0.15478E-04   -0.72084E-06  2040   0.144E-02    0.400E-03
DAV:   6    -0.122288172534E+03   -0.14394E-05   -0.21335E-06  1724   0.920E-03
  20 F= -.12228817E+03 E0= -.12228817E+03  d E =-.668681E-05
