       N       E                     dE             d eps       ncg     rms          rms(c)
DAV:   1    -0.122316889231E+03   -0.12232E+03   -0.28722E-01  3040   0.469E+00    0.739E-02
DAV:   2    -0.122316942550E+03   -0.53319E-04   -0.16931E-04  3484   0.947E-02    0.475E-02
DAV:   3    -0.122316894184E+03    0.48366E-04   -0.17789E-04  3356   0.594E-02    0.587E-02
DAV:   4    -0.122316943853E+03   -0.49669E-04   -0.11913E-04  3132   0.484E-02    0.431E-03
DAV:   5    -0.122316937926E+03    0.59277E-05   -0.36329E-06  2144   0.115E-02
   1 F= -.12231694E+03 E0= -.12231694E+03  d E =0.000000E+00
