       N       E                     dE             d eps       ncg     rms          rms(c)
DAV:   1    -0.401034139976E+02   -0.40103E+02   -0.28934E-05  1440   0.521E-02    0.151E-02
DAV:   2    -0.401034115975E+02    0.24001E-05   -0.42388E-05  1504   0.695E-02
   1 F= -.40103412E+02 E0= -.40103412E+02  d E =0.000000E+00
