<?xml version="1.0" encoding="ISO-8859-1"?>
<modeling>
 <generator>
  <i name="program" type="string">vasp </i>
  <i name="version" type="string">5.4.4.18Apr17-6-g9f103f2a35  </i>
  <i name="subversion" type="string">(build Oct 23 2017 21:22:35) complex            parallel </i>
  <i name="platform" type="string">LinuxIFC </i>
  <i name="date" type="string">2017 12 27 </i>
  <i name="time" type="string">08:21:28 </i>
 </generator>
 <incar>
  <i type="string" name="PREC">accurate</i>
  <i type="int" name="IBRION">    -1</i>
  <i name="EDIFF">      0.00001000</i>
  <i name="EDIFFG">     -0.01000000</i>
  <i type="int" name="ISIF">     2</i>
  <i name="ENCUT">    500.00000000</i>
  <i type="int" name="ISMEAR">    -5</i>
  <v type="int" name="KPOINT_BSE">    -1     0     0     0</v>
 </incar>
 <structure name="primitive_cell" >
  <crystal>
   <varray name="basis" >
    <v>       4.03371823      -8.06259895       4.03371823 </v>
    <v>       8.06259895      -4.03371823       4.03371823 </v>
    <v>       4.03371823      -4.03371823       8.06259895 </v>
   </varray>
   <i name="volume">    261.82079713 </i>
   <varray name="rec_basis" >
    <v>      -0.06207058      -0.18613731      -0.06207058 </v>
    <v>       0.18613731       0.06207058      -0.06207058 </v>
    <v>      -0.06207058       0.06207058       0.18613731 </v>
   </varray>
  </crystal>
  <varray name="positions" >
   <v>       0.37580541       0.37580541       0.37580541 </v>
   <v>       0.24925582       0.24925582      -0.24722700 </v>
   <v>       0.24925582      -0.24722700       0.24925582 </v>
   <v>      -0.24722700       0.24925582       0.24925582 </v>
   <v>       0.49995510       0.49995510       0.00089144 </v>
   <v>       0.00089144       0.49995510       0.49995510 </v>
   <v>       0.49995510       0.00089144       0.49995510 </v>
   <v>       0.49771607       0.49771607       0.49771607 </v>
   <v>       0.00274042       0.00274042       0.00274042 </v>
   <v>      -0.24771607      -0.24771607      -0.24771607 </v>
   <v>       0.24725958       0.24725958       0.24725958 </v>
   <v>       0.12500000       0.12500000       0.12500000 </v>
   <v>      -0.37500000      -0.37500000      -0.37500000 </v>
   <v>       0.00074418       0.49722700       0.00074418 </v>
   <v>       0.49722700       0.00074418       0.00074418 </v>
   <v>       0.00074418       0.00074418       0.49722700 </v>
   <v>      -0.24995510       0.24910856      -0.24995510 </v>
   <v>       0.24910856      -0.24995510      -0.24995510 </v>
   <v>      -0.24995510      -0.24995510       0.24910856 </v>
   <v>      -0.12580541      -0.12580541      -0.12580541 </v>
  </varray>
 </structure>
 <varray name="primitive_index" >
  <v type="int" >        1 </v>
  <v type="int" >        6 </v>
  <v type="int" >        4 </v>
  <v type="int" >       14 </v>
  <v type="int" >        9 </v>
  <v type="int" >        5 </v>
  <v type="int" >        7 </v>
  <v type="int" >       19 </v>
  <v type="int" >       17 </v>
  <v type="int" >       16 </v>
  <v type="int" >       18 </v>
  <v type="int" >       20 </v>
  <v type="int" >        2 </v>
  <v type="int" >       13 </v>
  <v type="int" >       11 </v>
  <v type="int" >       15 </v>
  <v type="int" >       10 </v>
  <v type="int" >        8 </v>
  <v type="int" >       12 </v>
  <v type="int" >        3 </v>
 </varray>
 <kpoints>
  <generation param="Gamma">
   <v type="int" name="divisions">       5        5        5 </v>
   <v name="usershift">      0.00000000       0.00000000       0.00000000 </v>
   <v name="genvec1">      0.20000000      -0.00000000      -0.00000000 </v>
   <v name="genvec2">     -0.00000000       0.20000000      -0.00000000 </v>
   <v name="genvec3">     -0.00000000      -0.00000000       0.20000000 </v>
   <v name="shift">      0.00000000       0.00000000       0.00000000 </v>
  </generation>
  <varray name="kpointlist" >
   <v>       0.00000000       0.00000000       0.00000000 </v>
   <v>       0.20000000      -0.00000000       0.00000000 </v>
   <v>       0.40000000       0.00000000       0.00000000 </v>
   <v>       0.20000000       0.20000000      -0.00000000 </v>
   <v>       0.40000000       0.20000000       0.00000000 </v>
   <v>      -0.40000000       0.20000000      -0.00000000 </v>
   <v>      -0.20000000       0.20000000      -0.00000000 </v>
   <v>       0.40000000       0.40000000      -0.00000000 </v>
   <v>      -0.40000000       0.40000000      -0.00000000 </v>
   <v>       0.20000000       0.20000000       0.20000000 </v>
   <v>       0.40000000       0.20000000       0.20000000 </v>
   <v>      -0.40000000       0.20000000       0.20000000 </v>
   <v>      -0.20000000       0.20000000       0.20000000 </v>
   <v>       0.40000000       0.40000000       0.20000000 </v>
   <v>      -0.40000000       0.40000000       0.20000000 </v>
   <v>      -0.20000000       0.40000000       0.20000000 </v>
   <v>      -0.40000000      -0.40000000       0.20000000 </v>
   <v>       0.40000000       0.40000000       0.40000000 </v>
   <v>      -0.40000000       0.40000000       0.40000000 </v>
  </varray>
  <varray name="weights" >
   <v>       0.00800000 </v>
   <v>       0.04800000 </v>
   <v>       0.04800000 </v>
   <v>       0.04800000 </v>
   <v>       0.09600000 </v>
   <v>       0.09600000 </v>
   <v>       0.04800000 </v>
   <v>       0.04800000 </v>
   <v>       0.04800000 </v>
   <v>       0.01600000 </v>
   <v>       0.04800000 </v>
   <v>       0.04800000 </v>
   <v>       0.04800000 </v>
   <v>       0.04800000 </v>
   <v>       0.09600000 </v>
   <v>       0.09600000 </v>
   <v>       0.04800000 </v>
   <v>       0.01600000 </v>
   <v>       0.04800000 </v>
  </varray>
  <varray name="tetrahedronlist"  type="int" >
   <v type="int" >       12        1        2        4       10 </v>
   <v type="int" >       12        2        4        5       11 </v>
   <v type="int" >       12        2        3        5       11 </v>
   <v type="int" >       12        2        4       10       11 </v>
   <v type="int" >       12        3        5        6       12 </v>
   <v type="int" >       12        3        3        6       12 </v>
   <v type="int" >       12        3        5       11       12 </v>
   <v type="int" >       12        3        6        7       13 </v>
   <v type="int" >       12        2        3        7       13 </v>
   <v type="int" >       12        3        6       12       13 </v>
   <v type="int" >       12        2        2        4        7 </v>
   <v type="int" >       12        1        2        2        4 </v>
   <v type="int" >       12        2        4        7       13 </v>
   <v type="int" >       12        4        5        8       14 </v>
   <v type="int" >       12        4        5       11       14 </v>
   <v type="int" >       12        4       10       11       14 </v>
   <v type="int" >       12        5        8        9       15 </v>
   <v type="int" >       12        5        6        9       15 </v>
   <v type="int" >       12        5        6       12       15 </v>
   <v type="int" >       12        5        8       14       15 </v>
   <v type="int" >       12        5       11       14       15 </v>
   <v type="int" >       12        5       11       12       15 </v>
   <v type="int" >       12        6        6        9       16 </v>
   <v type="int" >       12        6        6        7       16 </v>
   <v type="int" >       12        6        7       13       16 </v>
   <v type="int" >       12        6        9       15       16 </v>
   <v type="int" >       12        6       12       15       16 </v>
   <v type="int" >       12        6       12       13       16 </v>
   <v type="int" >       12        3        5        6        7 </v>
   <v type="int" >       12        2        3        5        7 </v>
   <v type="int" >       12        2        4        5        7 </v>
   <v type="int" >       12        5        6        7       16 </v>
   <v type="int" >       12        5        7       13       16 </v>
   <v type="int" >       12        4        5        7       13 </v>
   <v type="int" >       12        8        8        9       17 </v>
   <v type="int" >       12        8        9       15       17 </v>
   <v type="int" >       12        8       14       15       17 </v>
   <v type="int" >       12        5        8        9       16 </v>
   <v type="int" >       12        5        6        9       16 </v>
   <v type="int" >       12        6        9       16       16 </v>
   <v type="int" >       12        8        9       16       17 </v>
   <v type="int" >       12        9       15       16       17 </v>
   <v type="int" >       12        9       15       16       16 </v>
   <v type="int" >       12        3        5        6        6 </v>
   <v type="int" >        6        3        3        6        6 </v>
   <v type="int" >       12        5        6        6       16 </v>
   <v type="int" >        6        6        6       16       16 </v>
   <v type="int" >       12        4        5        8       13 </v>
   <v type="int" >       12        5        8       13       16 </v>
   <v type="int" >       12        8       13       16       17 </v>
   <v type="int" >       12       10       11       14       18 </v>
   <v type="int" >       12       11       14       15       19 </v>
   <v type="int" >       12       11       12       15       19 </v>
   <v type="int" >       12       11       14       18       19 </v>
   <v type="int" >       12       12       15       16       17 </v>
   <v type="int" >       12       12       13       16       17 </v>
   <v type="int" >       12       12       15       17       19 </v>
   <v type="int" >       12       14       15       17       19 </v>
   <v type="int" >       12       14       15       19       19 </v>
   <v type="int" >       12       14       18       19       19 </v>
   <v type="int" >       12       15       15       16       17 </v>
   <v type="int" >        6       15       15       16       16 </v>
   <v type="int" >       12       15       15       17       19 </v>
   <v type="int" >        6       15       15       19       19 </v>
   <v type="int" >        6       18       18       19       19 </v>
  </varray>
  <i name="volumeweight">      0.00133333 </i>
 </kpoints>
 <parameters>
  <separator name="general" >
   <i type="string" name="SYSTEM">unknown system</i>
   <i type="logical" name="LCOMPAT"> F  </i>
  </separator>
  <separator name="electronic" >
   <i type="string" name="PREC">accura</i>
   <i name="ENMAX">    500.00000000</i>
   <i name="ENAUG">    605.39200000</i>
   <i name="EDIFF">      0.00001000</i>
   <i type="int" name="IALGO">    38</i>
   <i type="int" name="IWAVPR">    10</i>
   <i type="int" name="NBANDS">   100</i>
   <i name="NELECT">    163.00000000</i>
   <i type="int" name="TURBO">     0</i>
   <i type="int" name="IRESTART">     0</i>
   <i type="int" name="NREBOOT">     0</i>
   <i type="int" name="NMIN">     0</i>
   <i name="EREF">      0.00000000</i>
   <separator name="electronic smearing" >
    <i type="int" name="ISMEAR">    -5</i>
    <i name="SIGMA">      0.20000000</i>
    <i name="KSPACING">      0.50000000</i>
    <i type="logical" name="KGAMMA"> T  </i>
   </separator>
   <separator name="electronic projectors" >
    <i type="logical" name="LREAL"> F  </i>
    <v name="ROPT">      0.00000000      0.00000000      0.00000000      0.00000000</v>
    <i type="int" name="LMAXPAW">  -100</i>
    <i type="int" name="LMAXMIX">     2</i>
    <i type="logical" name="NLSPLINE"> F  </i>
   </separator>
   <separator name="electronic startup" >
    <i type="int" name="ISTART">     1</i>
    <i type="int" name="ICHARG">     0</i>
    <i type="int" name="INIWAV">     1</i>
   </separator>
   <separator name="electronic spin" >
    <i type="int" name="ISPIN">     1</i>
    <i type="logical" name="LNONCOLLINEAR"> F  </i>
    <v name="MAGMOM">      1.00000000      1.00000000      1.00000000      1.00000000      1.00000000      1.00000000      1.00000000      1.00000000      1.00000000      1.00000000      1.00000000      1.00000000      1.00000000      1.00000000      1.00000000      1.00000000      1.00000000      1.00000000      1.00000000      1.00000000
</v>
    <i name="NUPDOWN">     -1.00000000</i>
    <i type="logical" name="LSORBIT"> F  </i>
    <v name="SAXIS">      0.00000000      0.00000000      1.00000000</v>
    <i type="logical" name="LSPIRAL"> F  </i>
    <v name="QSPIRAL">      0.00000000      0.00000000      0.00000000</v>
    <i type="logical" name="LZEROZ"> F  </i>
   </separator>
   <separator name="electronic exchange-correlation" >
    <i type="logical" name="LASPH"> F  </i>
    <i type="logical" name="LMETAGGA"> F  </i>
   </separator>
   <separator name="electronic convergence" >
    <i type="int" name="NELM">    60</i>
    <i type="int" name="NELMDL">     0</i>
    <i type="int" name="NELMIN">     2</i>
    <i name="ENINI">    500.00000000</i>
    <separator name="electronic convergence detail" >
     <i type="logical" name="LDIAG"> T  </i>
     <i type="logical" name="LSUBROT"> F  </i>
     <i name="WEIMIN">      0.00000000</i>
     <i name="EBREAK">      0.00000003</i>
     <i name="DEPER">      0.30000000</i>
     <i type="int" name="NRMM">     4</i>
     <i name="TIME">      0.40000000</i>
    </separator>
   </separator>
   <separator name="electronic mixer" >
    <i name="AMIX">      0.40000000</i>
    <i name="BMIX">      1.00000000</i>
    <i name="AMIN">      0.10000000</i>
    <i name="AMIX_MAG">      1.60000000</i>
    <i name="BMIX_MAG">      1.00000000</i>
    <separator name="electronic mixer details" >
     <i type="int" name="IMIX">     4</i>
     <i type="logical" name="MIXFIRST"> F  </i>
     <i type="int" name="MAXMIX">   -45</i>
     <i name="WC">    100.00000000</i>
     <i type="int" name="INIMIX">     1</i>
     <i type="int" name="MIXPRE">     1</i>
     <i type="int" name="MREMOVE">     5</i>
    </separator>
   </separator>
   <separator name="electronic dipolcorrection" >
    <i type="logical" name="LDIPOL"> F  </i>
    <i type="logical" name="LMONO"> F  </i>
    <i type="int" name="IDIPOL">     0</i>
    <i name="EPSILON">      1.00000000</i>
    <v name="DIPOL">   -100.00000000   -100.00000000   -100.00000000</v>
    <i name="EFIELD">      0.00000000</i>
   </separator>
  </separator>
  <separator name="grids" >
   <i type="int" name="NGX">    72</i>
   <i type="int" name="NGY">    72</i>
   <i type="int" name="NGZ">    72</i>
   <i type="int" name="NGXF">   144</i>
   <i type="int" name="NGYF">   144</i>
   <i type="int" name="NGZF">   144</i>
   <i type="logical" name="ADDGRID"> F  </i>
  </separator>
  <separator name="ionic" >
   <i type="int" name="NSW">     0</i>
   <i type="int" name="IBRION">    -1</i>
   <i type="int" name="MDALGO">     0</i>
   <i type="int" name="ISIF">     2</i>
   <i name="PSTRESS">      0.00000000</i>
   <i name="EDIFFG">     -0.01000000</i>
   <i type="int" name="NFREE">     0</i>
   <i name="POTIM">      0.50000000</i>
   <i name="SMASS">     -3.00000000</i>
   <i name="SCALEE">      1.00000000</i>
  </separator>
  <separator name="ionic md" >
   <i name="TEBEG">      0.00010000</i>
   <i name="TEEND">      0.00010000</i>
   <i type="int" name="NBLOCK">     1</i>
   <i type="int" name="KBLOCK">     1</i>
   <i type="int" name="NPACO">   256</i>
   <i name="APACO">     16.00000000</i>
  </separator>
  <separator name="symmetry" >
   <i type="int" name="ISYM">     2</i>
   <i name="SYMPREC">      0.00001000</i>
  </separator>
  <separator name="dos" >
   <i type="int" name="LORBIT">     0</i>
   <v name="RWIGS">     -1.00000000     -1.00000000     -1.00000000     -1.00000000</v>
   <i type="int" name="NEDOS">   301</i>
   <i name="EMIN">     10.00000000</i>
   <i name="EMAX">    -10.00000000</i>
   <i name="EFERMI">      0.00000000</i>
  </separator>
  <separator name="writing" >
   <i type="int" name="NWRITE">     2</i>
   <i type="logical" name="LWAVE"> T  </i>
   <i type="logical" name="LDOWNSAMPLE"> F  </i>
   <i type="logical" name="LCHARG"> T  </i>
   <i type="logical" name="LPARD"> F  </i>
   <i type="logical" name="LVTOT"> F  </i>
   <i type="logical" name="LVHAR"> F  </i>
   <i type="logical" name="LELF"> F  </i>
   <i type="logical" name="LOPTICS"> F  </i>
   <v name="STM">      0.00000000      0.00000000      0.00000000      0.00000000      0.00000000      0.00000000      0.00000000</v>
  </separator>
  <separator name="performance" >
   <i type="int" name="NPAR">     4</i>
   <i type="int" name="NSIM">     4</i>
   <i type="int" name="NBLK">    -1</i>
   <i type="logical" name="LPLANE"> T  </i>
   <i type="logical" name="LSCALAPACK"> T  </i>
   <i type="logical" name="LSCAAWARE"> F  </i>
   <i type="logical" name="LSCALU"> F  </i>
   <i type="logical" name="LASYNC"> F  </i>
   <i type="logical" name="LORBITALREAL"> F  </i>
  </separator>
  <separator name="miscellaneous" >
   <i type="int" name="IDIOT">     3</i>
   <i type="int" name="ISPECIAL">     0</i>
   <i type="logical" name="LMUSIC"> F  </i>
   <v name="POMASS">     92.91000000     16.00000000     87.62000000     47.88000000</v>
   <v name="DARWINR">      0.00000000      0.00000000      0.00000000      0.00000000</v>
   <v name="DARWINV">      1.00000000      1.00000000      1.00000000      1.00000000</v>
   <i type="logical" name="LCORR"> T  </i>
  </separator>
  <i type="logical" name="GGA_COMPAT"> T  </i>
  <i type="logical" name="LBERRY"> F  </i>
  <i type="int" name="ICORELEVEL">     0</i>
  <i type="logical" name="LDAU"> F  </i>
  <i type="int" name="I_CONSTRAINED_M">     0</i>
  <separator name="electronic exchange-correlation" >
   <i type="string" name="GGA">--</i>
   <i type="int" name="VOSKOWN">     0</i>
   <i type="logical" name="LHFCALC"> F  </i>
   <i type="string" name="PRECFOCK"></i>
   <i type="logical" name="LSYMGRAD"> F  </i>
   <i type="logical" name="LHFONE"> F  </i>
   <i type="logical" name="LRHFCALC"> F  </i>
   <i type="logical" name="LTHOMAS"> F  </i>
   <i type="logical" name="LMODELHF"> F  </i>
   <i name="ENCUT4O">     -1.00000000</i>
   <i type="int" name="EXXOEP">     0</i>
   <i type="int" name="FOURORBIT">     0</i>
   <i name="AEXX">      0.00000000</i>
   <i name="HFALPHA">      0.00000000</i>
   <i name="MCALPHA">      0.00000000</i>
   <i name="ALDAX">      1.00000000</i>
   <i name="AGGAX">      1.00000000</i>
   <i name="ALDAC">      1.00000000</i>
   <i name="AGGAC">      1.00000000</i>
   <i type="int" name="NKREDX">     1</i>
   <i type="int" name="NKREDY">     1</i>
   <i type="int" name="NKREDZ">     1</i>
   <i type="logical" name="SHIFTRED"> F  </i>
   <i type="logical" name="ODDONLY"> F  </i>
   <i type="logical" name="EVENONLY"> F  </i>
   <i type="int" name="LMAXFOCK">     0</i>
   <i type="int" name="NMAXFOCKAE">     0</i>
   <i type="logical" name="LFOCKAEDFT"> F  </i>
   <i name="HFSCREEN">      0.00000000</i>
   <i name="HFSCREENC">      0.00000000</i>
   <i type="int" name="NBANDSGWLOW">     0</i>
  </separator>
  <separator name="vdW DFT" >
   <i type="logical" name="LUSE_VDW"> F  </i>
   <i name="Zab_VDW">     -0.84910000</i>
   <i name="PARAM1">      0.12340000</i>
   <i name="PARAM2">      1.00000000</i>
   <i name="PARAM3">      0.00000000</i>
  </separator>
  <separator name="model GW" >
   <i type="int" name="MODEL_GW">     0</i>
   <i name="MODEL_EPS0">      7.85462391</i>
   <i name="MODEL_ALPHA">      1.00000000</i>
  </separator>
  <separator name="linear response parameters" >
   <i type="logical" name="LEPSILON"> F  </i>
   <i type="logical" name="LRPA"> F  </i>
   <i type="logical" name="LNABLA"> F  </i>
   <i type="logical" name="LVEL"> F  </i>
   <i type="int" name="KINTER">     0</i>
   <i name="CSHIFT">      0.10000000</i>
   <i name="OMEGAMAX">     -1.00000000</i>
   <i name="DEG_THRESHOLD">      0.00200000</i>
   <i name="RTIME">     -0.10000000</i>
   <i name="WPLASMAI">      0.00000000</i>
   <v name="DFIELD">      0.00000000      0.00000000      0.00000000</v>
   <v name="WPLASMA">      0.00000000      0.00000000      0.00000000      0.00000000      0.00000000      0.00000000      0.00000000      0.00000000      0.00000000</v>
  </separator>
  <separator name="orbital magnetization" >
   <i type="logical" name="NUCIND"> F  </i>
   <v name="MAGPOS">      0.00000000      0.00000000      0.00000000</v>
   <i type="logical" name="LNICSALL"> T  </i>
   <i type="logical" name="ORBITALMAG"> F  </i>
   <i type="logical" name="LMAGBLOCH"> F  </i>
   <i type="logical" name="LCHIMAG"> F  </i>
   <i type="logical" name="LGAUGE"> T  </i>
   <i type="int" name="MAGATOM">     0</i>
   <v name="MAGDIPOL">      0.00000000      0.00000000      0.00000000</v>
   <v name="AVECCONST">      0.00000000      0.00000000      0.00000000</v>
  </separator>
  <separator name="response functions" >
   <i type="logical" name="LADDER"> F  </i>
   <i type="logical" name="LRPAFORCE"> F  </i>
   <i type="logical" name="LFXC"> F  </i>
   <i type="logical" name="LHARTREE"> T  </i>
   <i type="int" name="IBSE">     0</i>
   <v type="int" name="KPOINT">    -1     0     0     0</v>
   <i type="logical" name="LTCTE"> F  </i>
   <i type="logical" name="LTETE"> F  </i>
   <i type="logical" name="LTRIPLET"> F  </i>
   <i type="logical" name="LFXCEPS"> F  </i>
   <i type="logical" name="LFXHEG"> F  </i>
   <i type="int" name="NATURALO">     2</i>
   <i type="logical" name="L2ORDER"> F  </i>
   <i type="logical" name="LMP2LT"> F  </i>
   <i type="logical" name="LUSEW"> F  </i>
   <i name="ENCUTGW">     -2.00000000</i>
   <i name="ENCUTGWSOFT">     -2.00000000</i>
   <i name="ENCUTLF">     -1.00000000</i>
   <i type="int" name="LMAXMP2">    -1</i>
   <i name="SCISSOR">      0.00000000</i>
   <i type="int" name="NOMEGA">     0</i>
   <i type="int" name="NOMEGAR">     0</i>
   <i type="int" name="NBANDSGW">    -1</i>
   <i type="int" name="NBANDSO">    -1</i>
   <i type="int" name="NBANDSV">    -1</i>
   <i type="int" name="NELM">     1</i>
   <i type="int" name="NELMHF">     1</i>
   <i type="int" name="DIM">     3</i>
   <i type="int" name="ANTIRES">     0</i>
   <i name="OMEGAMAX">    -30.00000000</i>
   <i name="OMEGAMIN">    -30.00000000</i>
   <i name="OMEGATL">   -200.00000000</i>
   <i type="int" name="OMEGAGRID">   140</i>
   <i name="CSHIFT">     -0.10000000</i>
   <i type="logical" name="SELFENERGY"> F  </i>
   <i type="logical" name="LSPECTRAL"> F  </i>
   <i type="logical" name="LSPECTRALGW"> F  </i>
   <i type="logical" name="LSINGLES"> F  </i>
   <i type="logical" name="LFERMIGW"> F  </i>
   <i type="logical" name="ODDONLYGW"> F  </i>
   <i type="logical" name="EVENONLYGW"> F  </i>
   <i type="int" name="NKREDLFX">     1</i>
   <i type="int" name="NKREDLFY">     1</i>
   <i type="int" name="NKREDLFZ">     1</i>
   <i type="int" name="MAXMEM">  2800</i>
   <i type="int" name="TELESCOPE">     0</i>
   <i type="int" name="TAUPAR">     1</i>
   <i type="int" name="OMEGAPAR">    -1</i>
   <i name="LAMBDA">      1.00000000</i>
  </separator>
  <separator name="External order field" >
   <i name="OFIELD_KAPPA">      0.00000000</i>
   <v name="OFIELD_K">      0.00000000      0.00000000      0.00000000</v>
   <i name="OFIELD_Q6_NEAR">      0.00000000</i>
   <i name="OFIELD_Q6_FAR">      0.00000000</i>
   <i name="OFIELD_A">      0.00000000</i>
  </separator>
 </parameters>
 <atominfo>
  <atoms>      20 </atoms>
  <types>       4 </types>
  <array name="atoms" >
   <dimension dim="1">ion</dimension>
   <field type="string">element</field>
   <field type="int">atomtype</field>
   <set>
    <rc><c>Nb</c><c>   1</c></rc>
    <rc><c>Nb</c><c>   1</c></rc>
    <rc><c>Nb</c><c>   1</c></rc>
    <rc><c>O </c><c>   2</c></rc>
    <rc><c>O </c><c>   2</c></rc>
    <rc><c>O </c><c>   2</c></rc>
    <rc><c>O </c><c>   2</c></rc>
    <rc><c>O </c><c>   2</c></rc>
    <rc><c>O </c><c>   2</c></rc>
    <rc><c>O </c><c>   2</c></rc>
    <rc><c>O </c><c>   2</c></rc>
    <rc><c>O </c><c>   2</c></rc>
    <rc><c>O </c><c>   2</c></rc>
    <rc><c>O </c><c>   2</c></rc>
    <rc><c>O </c><c>   2</c></rc>
    <rc><c>Sr</c><c>   3</c></rc>
    <rc><c>Sr</c><c>   3</c></rc>
    <rc><c>Sr</c><c>   3</c></rc>
    <rc><c>Sr</c><c>   3</c></rc>
    <rc><c>Ti</c><c>   4</c></rc>
   </set>
  </array>
  <array name="atomtypes" >
   <dimension dim="1">type</dimension>
   <field type="int">atomspertype</field>
   <field type="string">element</field>
   <field>mass</field>
   <field>valence</field>
   <field type="string">pseudopotential</field>
   <set>
    <rc><c>   3</c><c>Nb</c><c>     92.91000000</c><c>     13.00000000</c><c>  PAW_PBE Nb_sv 25May2007               </c></rc>
    <rc><c>  12</c><c>O </c><c>     16.00000000</c><c>      6.00000000</c><c>  PAW_PBE O 08Apr2002                   </c></rc>
    <rc><c>   4</c><c>Sr</c><c>     87.62000000</c><c>     10.00000000</c><c>  PAW_PBE Sr_sv 07Sep2000               </c></rc>
    <rc><c>   1</c><c>Ti</c><c>     47.88000000</c><c>     12.00000000</c><c>  PAW_PBE Ti_sv 26Sep2005               </c></rc>
   </set>
  </array>
 </atominfo>
 <structure name="initialpos" >
  <crystal>
   <varray name="basis" >
    <v>       4.03371823      -8.06259895       4.03371823 </v>
    <v>       8.06259895      -4.03371823       4.03371823 </v>
    <v>       4.03371823      -4.03371823       8.06259895 </v>
   </varray>
   <i name="volume">    261.82079713 </i>
   <varray name="rec_basis" >
    <v>      -0.06207058      -0.18613731      -0.06207058 </v>
    <v>       0.18613731       0.06207058      -0.06207058 </v>
    <v>      -0.06207058       0.06207058       0.18613731 </v>
   </varray>
  </crystal>
  <varray name="positions" >
   <v>       0.37580541       0.37580541       0.37580541 </v>
   <v>       0.62500000       0.62500000       0.62500000 </v>
   <v>       0.87419459       0.87419459       0.87419459 </v>
   <v>       0.24925582       0.75277300       0.24925582 </v>
   <v>       0.00089144       0.49995510       0.49995510 </v>
   <v>       0.24925582       0.24925582       0.75277300 </v>
   <v>       0.49995510       0.00089144       0.49995510 </v>
   <v>       0.24910856       0.75004490       0.75004490 </v>
   <v>       0.49995510       0.49995510       0.00089144 </v>
   <v>       0.75004490       0.24910856       0.75004490 </v>
   <v>       0.49722700       0.00074418       0.00074418 </v>
   <v>       0.75004490       0.75004490       0.24910856 </v>
   <v>       0.00074418       0.49722700       0.00074418 </v>
   <v>       0.75277300       0.24925582       0.24925582 </v>
   <v>       0.00074418       0.00074418       0.49722700 </v>
   <v>       0.75228393       0.75228393       0.75228393 </v>
   <v>       0.00274042       0.00274042       0.00274042 </v>
   <v>       0.24725958       0.24725958       0.24725958 </v>
   <v>       0.49771607       0.49771607       0.49771607 </v>
   <v>       0.12500000       0.12500000       0.12500000 </v>
  </varray>
 </structure>
 <calculation>
  <scstep>
   <time name="dav">    3.44    3.46</time>
   <time name="total">    3.85    3.88</time>
   <energy>
    <i name="alphaZ">    905.59337001 </i>
    <i name="ewald"> -11686.80253486 </i>
    <i name="hartreedc">  -3341.51074664 </i>
    <i name="XCdc">    716.29142811 </i>
    <i name="pawpsdc">  17529.58703761 </i>
    <i name="pawaedc"> -17435.78093527 </i>
    <i name="eentropy">      0.00000000 </i>
    <i name="bandstr">  -1664.76394851 </i>
    <i name="atom">  14814.03798863 </i>
    <i name="e_fr_energy">   -163.34834092 </i>
    <i name="e_wo_entrp">   -163.34834092 </i>
    <i name="e_0_energy">   -163.34834092 </i>
   </energy>
  </scstep>
  <scstep>
   <time name="dav">    3.76    3.76</time>
   <time name="total">    4.17    4.17</time>
   <energy>
    <i name="e_fr_energy">   -163.34845136 </i>
    <i name="e_wo_entrp">   -163.34845136 </i>
    <i name="e_0_energy">   -163.34845136 </i>
   </energy>
  </scstep>
  <scstep>
   <time name="dav">    3.82    3.83</time>
   <time name="total">    4.22    4.24</time>
   <energy>
    <i name="e_fr_energy">   -163.34832768 </i>
    <i name="e_wo_entrp">   -163.34832768 </i>
    <i name="e_0_energy">   -163.34832768 </i>
   </energy>
  </scstep>
  <scstep>
   <time name="dav">    3.63    3.63</time>
   <time name="total">    4.03    4.04</time>
   <energy>
    <i name="e_fr_energy">   -163.34843547 </i>
    <i name="e_wo_entrp">   -163.34843547 </i>
    <i name="e_0_energy">   -163.34843547 </i>
   </energy>
  </scstep>
  <scstep>
   <time name="dav">    2.78    2.79</time>
   <time name="total">    2.89    2.89</time>
   <energy>
    <i name="alphaZ">    905.59337001 </i>
    <i name="ewald"> -11686.80253486 </i>
    <i name="hartreedc">  -3341.60049538 </i>
    <i name="XCdc">    716.29675581 </i>
    <i name="pawpsdc">  17510.84190439 </i>
    <i name="pawaedc"> -17417.03510949 </i>
    <i name="eentropy">      0.00000000 </i>
    <i name="bandstr">  -1664.68030603 </i>
    <i name="atom">  14814.03798863 </i>
    <i name="e_fr_energy">   -163.34842693 </i>
    <i name="e_wo_entrp">   -163.34842693 </i>
    <i name="e_0_energy">   -163.34842693 </i>
   </energy>
  </scstep>
  <structure>
   <crystal>
    <varray name="basis" >
     <v>       4.03371823      -8.06259895       4.03371823 </v>
     <v>       8.06259895      -4.03371823       4.03371823 </v>
     <v>       4.03371823      -4.03371823       8.06259895 </v>
    </varray>
    <i name="volume">    261.82079713 </i>
    <varray name="rec_basis" >
     <v>      -0.06207058      -0.18613731      -0.06207058 </v>
     <v>       0.18613731       0.06207058      -0.06207058 </v>
     <v>      -0.06207058       0.06207058       0.18613731 </v>
    </varray>
   </crystal>
   <varray name="positions" >
    <v>       0.37580541       0.37580541       0.37580541 </v>
    <v>       0.62500000       0.62500000       0.62500000 </v>
    <v>       0.87419459       0.87419459       0.87419459 </v>
    <v>       0.24925582       0.75277300       0.24925582 </v>
    <v>       0.00089144       0.49995510       0.49995510 </v>
    <v>       0.24925582       0.24925582       0.75277300 </v>
    <v>       0.49995510       0.00089144       0.49995510 </v>
    <v>       0.24910856       0.75004490       0.75004490 </v>
    <v>       0.49995510       0.49995510       0.00089144 </v>
    <v>       0.75004490       0.24910856       0.75004490 </v>
    <v>       0.49722700       0.00074418       0.00074418 </v>
    <v>       0.75004490       0.75004490       0.24910856 </v>
    <v>       0.00074418       0.49722700       0.00074418 </v>
    <v>       0.75277300       0.24925582       0.24925582 </v>
    <v>       0.00074418       0.00074418       0.49722700 </v>
    <v>       0.75228393       0.75228393       0.75228393 </v>
    <v>       0.00274042       0.00274042       0.00274042 </v>
    <v>       0.24725958       0.24725958       0.24725958 </v>
    <v>       0.49771607       0.49771607       0.49771607 </v>
    <v>       0.12500000       0.12500000       0.12500000 </v>
   </varray>
  </structure>
  <varray name="forces" >
   <v>       0.00369023      -0.00369023       0.00369023 </v>
   <v>      -0.00000000       0.00000000      -0.00000000 </v>
   <v>      -0.00369023       0.00369023      -0.00369023 </v>
   <v>       0.00373427       0.00290907      -0.00290907 </v>
   <v>      -0.00307204       0.00323520      -0.00307204 </v>
   <v>      -0.00290907       0.00290907       0.00373427 </v>
   <v>      -0.00323520       0.00307204      -0.00307204 </v>
   <v>       0.00307204      -0.00323520       0.00307204 </v>
   <v>      -0.00307204       0.00307204      -0.00323520 </v>
   <v>       0.00323520      -0.00307204       0.00307204 </v>
   <v>       0.00290907       0.00373427       0.00290907 </v>
   <v>       0.00307204      -0.00307204       0.00323520 </v>
   <v>      -0.00373427      -0.00290907       0.00290907 </v>
   <v>      -0.00290907      -0.00373427      -0.00290907 </v>
   <v>       0.00290907      -0.00290907      -0.00373427 </v>
   <v>      -0.00108629       0.00108629      -0.00108629 </v>
   <v>       0.00269035      -0.00269035       0.00269035 </v>
   <v>      -0.00269035       0.00269035      -0.00269035 </v>
   <v>       0.00108629      -0.00108629       0.00108629 </v>
   <v>      -0.00000000       0.00000000      -0.00000000 </v>
  </varray>
  <varray name="stress" >
   <v>       2.50313912      -0.14609797       0.14609797 </v>
   <v>      -0.14609797       2.50313912      -0.14609797 </v>
   <v>       0.14609797      -0.14609797       2.50313912 </v>
  </varray>
  <energy>
   <i name="e_fr_energy">   -163.34842693 </i>
   <i name="e_wo_entrp">   -163.34842693 </i>
   <i name="e_0_energy">      0.00000000 </i>
  </energy>
  <time name="totalsc">   24.53   25.90</time>
  <eigenvalues>
   <array>
    <dimension dim="1">band</dimension>
    <dimension dim="2">kpoint</dimension>
    <dimension dim="3">spin</dimension>
    <field>eigene</field>
    <field>occ</field>
    <set>
     <set comment="spin 1">
      <set comment="kpoint 1">
       <r>  -51.1323    1.0000 </r>
       <r>  -49.5465    1.0000 </r>
       <r>  -49.5464    1.0000 </r>
       <r>  -49.4395    1.0000 </r>
       <r>  -29.0031    1.0000 </r>
       <r>  -28.9890    1.0000 </r>
       <r>  -28.8852    1.0000 </r>
       <r>  -28.8613    1.0000 </r>
       <r>  -27.4324    1.0000 </r>
       <r>  -27.4324    1.0000 </r>
       <r>  -27.4287    1.0000 </r>
       <r>  -25.7874    1.0000 </r>
       <r>  -25.7872    1.0000 </r>
       <r>  -25.7872    1.0000 </r>
       <r>  -25.7687    1.0000 </r>
       <r>  -25.7687    1.0000 </r>
       <r>  -25.7660    1.0000 </r>
       <r>  -25.6532    1.0000 </r>
       <r>  -25.6514    1.0000 </r>
       <r>  -25.6514    1.0000 </r>
       <r>  -13.0333    1.0000 </r>
       <r>  -12.7050    1.0000 </r>
       <r>  -12.6126    1.0000 </r>
       <r>  -12.4808    1.0000 </r>
       <r>  -12.4808    1.0000 </r>
       <r>  -12.2195    1.0000 </r>
       <r>  -12.2195    1.0000 </r>
       <r>  -11.9613    1.0000 </r>
       <r>  -11.9613    1.0000 </r>
       <r>  -11.6657    1.0000 </r>
       <r>  -11.6520    1.0000 </r>
       <r>  -11.6520    1.0000 </r>
       <r>  -11.1260    1.0000 </r>
       <r>  -11.1260    1.0000 </r>
       <r>  -11.1148    1.0000 </r>
       <r>  -10.9760    1.0000 </r>
       <r>  -10.9760    1.0000 </r>
       <r>  -10.9288    1.0000 </r>
       <r>  -10.8321    1.0000 </r>
       <r>  -10.8321    1.0000 </r>
       <r>  -10.8086    1.0000 </r>
       <r>  -10.8086    1.0000 </r>
       <r>  -10.5633    1.0000 </r>
       <r>  -10.5565    1.0000 </r>
       <r>   -0.4100    1.0000 </r>
       <r>   -0.4100    1.0000 </r>
       <r>   -0.1561    1.0000 </r>
       <r>    0.1420    1.0000 </r>
       <r>    0.2554    1.0000 </r>
       <r>    0.2554    1.0000 </r>
       <r>    0.3009    1.0000 </r>
       <r>    0.6737    1.0000 </r>
       <r>    0.6737    1.0000 </r>
       <r>    0.6798    1.0000 </r>
       <r>    1.0590    1.0000 </r>
       <r>    1.0590    1.0000 </r>
       <r>    1.1697    1.0000 </r>
       <r>    1.1697    1.0000 </r>
       <r>    1.3644    1.0000 </r>
       <r>    1.3644    1.0000 </r>
       <r>    1.4166    1.0000 </r>
       <r>    1.4922    1.0000 </r>
       <r>    1.7526    1.0000 </r>
       <r>    1.7526    1.0000 </r>
       <r>    1.7629    1.0000 </r>
       <r>    2.8978    1.0000 </r>
       <r>    2.9403    1.0000 </r>
       <r>    2.9403    1.0000 </r>
       <r>    3.1022    1.0000 </r>
       <r>    3.1022    1.0000 </r>
       <r>    3.1149    1.0000 </r>
       <r>    3.1149    1.0000 </r>
       <r>    3.3949    1.0000 </r>
       <r>    3.5191    1.0000 </r>
       <r>    3.6123    1.0000 </r>
       <r>    3.6534    1.0000 </r>
       <r>    3.6534    1.0000 </r>
       <r>    4.0336    1.0000 </r>
       <r>    4.0336    1.0000 </r>
       <r>    4.0706    1.0000 </r>
       <r>    6.3755    1.0000 </r>
       <r>    6.3755    1.0000 </r>
       <r>    6.3757    1.0000 </r>
       <r>    8.2206    0.0000 </r>
       <r>    8.2367    0.0000 </r>
       <r>    8.2367    0.0000 </r>
       <r>    8.2482    0.0000 </r>
       <r>    8.2555    0.0000 </r>
       <r>    8.2555    0.0000 </r>
       <r>    9.3681    0.0000 </r>
       <r>    9.3681    0.0000 </r>
       <r>    9.3978    0.0000 </r>
       <r>    9.7858    0.0000 </r>
       <r>    9.7858    0.0000 </r>
       <r>    9.7897    0.0000 </r>
       <r>    9.7897    0.0000 </r>
       <r>    9.7905    0.0000 </r>
       <r>   10.6046    0.0000 </r>
       <r>   10.6126    0.0000 </r>
       <r>   10.6126    0.0000 </r>
      </set>
      <set comment="kpoint 2">
       <r>  -51.1323    1.0000 </r>
       <r>  -49.5465    1.0000 </r>
       <r>  -49.5464    1.0000 </r>
       <r>  -49.4395    1.0000 </r>
       <r>  -29.0020    1.0000 </r>
       <r>  -28.9900    1.0000 </r>
       <r>  -28.8838    1.0000 </r>
       <r>  -28.8634    1.0000 </r>
       <r>  -27.4325    1.0000 </r>
       <r>  -27.4318    1.0000 </r>
       <r>  -27.4288    1.0000 </r>
       <r>  -25.7889    1.0000 </r>
       <r>  -25.7887    1.0000 </r>
       <r>  -25.7883    1.0000 </r>
       <r>  -25.7684    1.0000 </r>
       <r>  -25.7673    1.0000 </r>
       <r>  -25.7665    1.0000 </r>
       <r>  -25.6526    1.0000 </r>
       <r>  -25.6506    1.0000 </r>
       <r>  -25.6492    1.0000 </r>
       <r>  -13.0421    1.0000 </r>
       <r>  -12.8334    1.0000 </r>
       <r>  -12.7642    1.0000 </r>
       <r>  -12.4748    1.0000 </r>
       <r>  -12.3720    1.0000 </r>
       <r>  -12.2370    1.0000 </r>
       <r>  -12.0964    1.0000 </r>
       <r>  -11.9854    1.0000 </r>
       <r>  -11.9495    1.0000 </r>
       <r>  -11.9033    1.0000 </r>
       <r>  -11.8048    1.0000 </r>
       <r>  -11.7610    1.0000 </r>
       <r>  -11.0754    1.0000 </r>
       <r>  -10.9914    1.0000 </r>
       <r>  -10.9551    1.0000 </r>
       <r>  -10.9248    1.0000 </r>
       <r>  -10.9087    1.0000 </r>
       <r>  -10.8848    1.0000 </r>
       <r>  -10.8706    1.0000 </r>
       <r>  -10.8035    1.0000 </r>
       <r>  -10.6761    1.0000 </r>
       <r>  -10.6684    1.0000 </r>
       <r>  -10.5616    1.0000 </r>
       <r>  -10.5480    1.0000 </r>
       <r>   -0.3799    1.0000 </r>
       <r>   -0.3606    1.0000 </r>
       <r>   -0.0766    1.0000 </r>
       <r>    0.0804    1.0000 </r>
       <r>    0.2279    1.0000 </r>
       <r>    0.3150    1.0000 </r>
       <r>    0.3907    1.0000 </r>
       <r>    0.4096    1.0000 </r>
       <r>    0.5371    1.0000 </r>
       <r>    0.6305    1.0000 </r>
       <r>    0.7857    1.0000 </r>
       <r>    0.9556    1.0000 </r>
       <r>    1.1335    1.0000 </r>
       <r>    1.3546    1.0000 </r>
       <r>    1.4170    1.0000 </r>
       <r>    1.4180    1.0000 </r>
       <r>    1.5526    1.0000 </r>
       <r>    1.6827    1.0000 </r>
       <r>    1.7200    1.0000 </r>
       <r>    1.9391    1.0000 </r>
       <r>    2.3059    1.0000 </r>
       <r>    2.4787    1.0000 </r>
       <r>    2.5589    1.0000 </r>
       <r>    2.8311    1.0000 </r>
       <r>    2.8368    1.0000 </r>
       <r>    2.9195    1.0000 </r>
       <r>    2.9310    1.0000 </r>
       <r>    2.9813    1.0000 </r>
       <r>    3.1459    1.0000 </r>
       <r>    3.3139    1.0000 </r>
       <r>    3.4017    1.0000 </r>
       <r>    3.4178    1.0000 </r>
       <r>    3.5642    1.0000 </r>
       <r>    3.7684    1.0000 </r>
       <r>    3.8114    1.0000 </r>
       <r>    3.9904    1.0000 </r>
       <r>    6.5475    1.0000 </r>
       <r>    6.9503    1.0882 </r>
       <r>    6.9561    0.8387 </r>
       <r>    7.9012    0.0000 </r>
       <r>    8.0462    0.0000 </r>
       <r>    8.1409    0.0000 </r>
       <r>    8.5564    0.0000 </r>
       <r>    8.7079    0.0000 </r>
       <r>    8.7195    0.0000 </r>
       <r>    9.4068    0.0000 </r>
       <r>    9.4276    0.0000 </r>
       <r>    9.6548    0.0000 </r>
       <r>    9.7534    0.0000 </r>
       <r>    9.7735    0.0000 </r>
       <r>    9.9145    0.0000 </r>
       <r>    9.9346    0.0000 </r>
       <r>   10.3517    0.0000 </r>
       <r>   10.8307    0.0000 </r>
       <r>   11.1087    0.0000 </r>
       <r>   11.1481    0.0000 </r>
      </set>
      <set comment="kpoint 3">
       <r>  -51.1323    1.0000 </r>
       <r>  -49.5464    1.0000 </r>
       <r>  -49.5464    1.0000 </r>
       <r>  -49.4396    1.0000 </r>
       <r>  -28.9993    1.0000 </r>
       <r>  -28.9924    1.0000 </r>
       <r>  -28.8802    1.0000 </r>
       <r>  -28.8684    1.0000 </r>
       <r>  -27.4326    1.0000 </r>
       <r>  -27.4309    1.0000 </r>
       <r>  -27.4290    1.0000 </r>
       <r>  -25.7909    1.0000 </r>
       <r>  -25.7904    1.0000 </r>
       <r>  -25.7899    1.0000 </r>
       <r>  -25.7681    1.0000 </r>
       <r>  -25.7670    1.0000 </r>
       <r>  -25.7661    1.0000 </r>
       <r>  -25.6514    1.0000 </r>
       <r>  -25.6491    1.0000 </r>
       <r>  -25.6463    1.0000 </r>
       <r>  -13.1016    1.0000 </r>
       <r>  -12.9281    1.0000 </r>
       <r>  -12.8096    1.0000 </r>
       <r>  -12.4595    1.0000 </r>
       <r>  -12.4510    1.0000 </r>
       <r>  -12.2403    1.0000 </r>
       <r>  -12.1335    1.0000 </r>
       <r>  -12.0825    1.0000 </r>
       <r>  -12.0259    1.0000 </r>
       <r>  -11.9459    1.0000 </r>
       <r>  -11.8970    1.0000 </r>
       <r>  -11.8471    1.0000 </r>
       <r>  -10.9816    1.0000 </r>
       <r>  -10.9812    1.0000 </r>
       <r>  -10.8716    1.0000 </r>
       <r>  -10.8562    1.0000 </r>
       <r>  -10.8303    1.0000 </r>
       <r>  -10.7334    1.0000 </r>
       <r>  -10.7162    1.0000 </r>
       <r>  -10.6796    1.0000 </r>
       <r>  -10.6337    1.0000 </r>
       <r>  -10.5804    1.0000 </r>
       <r>  -10.5173    1.0000 </r>
       <r>  -10.4575    1.0000 </r>
       <r>   -0.3632    1.0000 </r>
       <r>   -0.3199    1.0000 </r>
       <r>   -0.2171    1.0000 </r>
       <r>   -0.0474    1.0000 </r>
       <r>    0.1218    1.0000 </r>
       <r>    0.2875    1.0000 </r>
       <r>    0.3482    1.0000 </r>
       <r>    0.5558    1.0000 </r>
       <r>    0.6446    1.0000 </r>
       <r>    0.7910    1.0000 </r>
       <r>    0.8506    1.0000 </r>
       <r>    1.1089    1.0000 </r>
       <r>    1.1999    1.0000 </r>
       <r>    1.3447    1.0000 </r>
       <r>    1.3804    1.0000 </r>
       <r>    1.4606    1.0000 </r>
       <r>    1.6140    1.0000 </r>
       <r>    1.6581    1.0000 </r>
       <r>    1.6824    1.0000 </r>
       <r>    1.7813    1.0000 </r>
       <r>    1.9041    1.0000 </r>
       <r>    2.3744    1.0000 </r>
       <r>    2.4525    1.0000 </r>
       <r>    2.5469    1.0000 </r>
       <r>    2.6129    1.0000 </r>
       <r>    2.7349    1.0000 </r>
       <r>    2.8863    1.0000 </r>
       <r>    2.9136    1.0000 </r>
       <r>    2.9425    1.0000 </r>
       <r>    3.0205    1.0000 </r>
       <r>    3.0250    1.0000 </r>
       <r>    3.1602    1.0000 </r>
       <r>    3.1845    1.0000 </r>
       <r>    3.2844    1.0000 </r>
       <r>    3.6420    1.0000 </r>
       <r>    3.8830    1.0000 </r>
       <r>    6.9625    1.0489 </r>
       <r>    7.4750   -0.0029 </r>
       <r>    8.0038   -0.0344 </r>
       <r>    8.0092    0.0000 </r>
       <r>    8.2981    0.0000 </r>
       <r>    8.3706    0.0000 </r>
       <r>    8.7185    0.0000 </r>
       <r>    8.7412    0.0000 </r>
       <r>    8.8501    0.0000 </r>
       <r>    8.8756    0.0000 </r>
       <r>    8.9067    0.0000 </r>
       <r>    9.3456    0.0000 </r>
       <r>   10.1573    0.0000 </r>
       <r>   10.4521    0.0000 </r>
       <r>   10.6758    0.0000 </r>
       <r>   10.6840    0.0000 </r>
       <r>   11.1270    0.0000 </r>
       <r>   11.1653    0.0000 </r>
       <r>   11.1705    0.0000 </r>
       <r>   11.4118    0.0000 </r>
      </set>
      <set comment="kpoint 4">
       <r>  -51.1323    1.0000 </r>
       <r>  -49.5465    1.0000 </r>
       <r>  -49.5464    1.0000 </r>
       <r>  -49.4395    1.0000 </r>
       <r>  -29.0020    1.0000 </r>
       <r>  -28.9899    1.0000 </r>
       <r>  -28.8838    1.0000 </r>
       <r>  -28.8634    1.0000 </r>
       <r>  -27.4325    1.0000 </r>
       <r>  -27.4318    1.0000 </r>
       <r>  -27.4288    1.0000 </r>
       <r>  -25.7892    1.0000 </r>
       <r>  -25.7891    1.0000 </r>
       <r>  -25.7885    1.0000 </r>
       <r>  -25.7680    1.0000 </r>
       <r>  -25.7673    1.0000 </r>
       <r>  -25.7662    1.0000 </r>
       <r>  -25.6525    1.0000 </r>
       <r>  -25.6506    1.0000 </r>
       <r>  -25.6492    1.0000 </r>
       <r>  -13.0434    1.0000 </r>
       <r>  -12.9030    1.0000 </r>
       <r>  -12.6625    1.0000 </r>
       <r>  -12.4782    1.0000 </r>
       <r>  -12.3895    1.0000 </r>
       <r>  -12.2235    1.0000 </r>
       <r>  -12.0686    1.0000 </r>
       <r>  -12.0224    1.0000 </r>
       <r>  -11.9801    1.0000 </r>
       <r>  -11.9280    1.0000 </r>
       <r>  -11.7644    1.0000 </r>
       <r>  -11.7637    1.0000 </r>
       <r>  -11.0312    1.0000 </r>
       <r>  -11.0291    1.0000 </r>
       <r>  -10.9580    1.0000 </r>
       <r>  -10.9415    1.0000 </r>
       <r>  -10.9055    1.0000 </r>
       <r>  -10.8708    1.0000 </r>
       <r>  -10.8596    1.0000 </r>
       <r>  -10.7995    1.0000 </r>
       <r>  -10.7131    1.0000 </r>
       <r>  -10.6601    1.0000 </r>
       <r>  -10.5558    1.0000 </r>
       <r>  -10.5408    1.0000 </r>
       <r>   -0.3118    1.0000 </r>
       <r>   -0.2923    1.0000 </r>
       <r>   -0.0611    1.0000 </r>
       <r>    0.0812    1.0000 </r>
       <r>    0.1219    1.0000 </r>
       <r>    0.2893    1.0000 </r>
       <r>    0.3446    1.0000 </r>
       <r>    0.3814    1.0000 </r>
       <r>    0.4065    1.0000 </r>
       <r>    0.5472    1.0000 </r>
       <r>    0.8535    1.0000 </r>
       <r>    1.0950    1.0000 </r>
       <r>    1.1212    1.0000 </r>
       <r>    1.3544    1.0000 </r>
       <r>    1.4034    1.0000 </r>
       <r>    1.4635    1.0000 </r>
       <r>    1.5956    1.0000 </r>
       <r>    1.6619    1.0000 </r>
       <r>    1.7318    1.0000 </r>
       <r>    2.0533    1.0000 </r>
       <r>    2.3882    1.0000 </r>
       <r>    2.4413    1.0000 </r>
       <r>    2.4700    1.0000 </r>
       <r>    2.8319    1.0000 </r>
       <r>    2.8611    1.0000 </r>
       <r>    2.9529    1.0000 </r>
       <r>    2.9804    1.0000 </r>
       <r>    3.0461    1.0000 </r>
       <r>    3.1279    1.0000 </r>
       <r>    3.1486    1.0000 </r>
       <r>    3.3287    1.0000 </r>
       <r>    3.3341    1.0000 </r>
       <r>    3.6459    1.0000 </r>
       <r>    3.7891    1.0000 </r>
       <r>    3.8528    1.0000 </r>
       <r>    3.9230    1.0000 </r>
       <r>    6.7967    1.0000 </r>
       <r>    6.8722    1.0981 </r>
       <r>    6.8742    0.9324 </r>
       <r>    7.4321    0.0002 </r>
       <r>    8.3676    0.0000 </r>
       <r>    8.3711    0.0000 </r>
       <r>    8.4625    0.0000 </r>
       <r>    8.5094    0.0000 </r>
       <r>    8.9438    0.0000 </r>
       <r>    9.3946    0.0000 </r>
       <r>    9.4672    0.0000 </r>
       <r>    9.4776    0.0000 </r>
       <r>    9.8101    0.0000 </r>
       <r>    9.8146    0.0000 </r>
       <r>    9.9923    0.0000 </r>
       <r>   10.1607    0.0000 </r>
       <r>   10.2114    0.0000 </r>
       <r>   11.0365    0.0000 </r>
       <r>   11.0527    0.0000 </r>
       <r>   11.0763    0.0000 </r>
      </set>
      <set comment="kpoint 5">
       <r>  -51.1323    1.0000 </r>
       <r>  -49.5464    1.0000 </r>
       <r>  -49.5464    1.0000 </r>
       <r>  -49.4396    1.0000 </r>
       <r>  -29.0000    1.0000 </r>
       <r>  -28.9917    1.0000 </r>
       <r>  -28.8811    1.0000 </r>
       <r>  -28.8672    1.0000 </r>
       <r>  -27.4323    1.0000 </r>
       <r>  -27.4313    1.0000 </r>
       <r>  -27.4290    1.0000 </r>
       <r>  -25.7904    1.0000 </r>
       <r>  -25.7897    1.0000 </r>
       <r>  -25.7894    1.0000 </r>
       <r>  -25.7684    1.0000 </r>
       <r>  -25.7672    1.0000 </r>
       <r>  -25.7669    1.0000 </r>
       <r>  -25.6515    1.0000 </r>
       <r>  -25.6490    1.0000 </r>
       <r>  -25.6472    1.0000 </r>
       <r>  -13.0666    1.0000 </r>
       <r>  -12.9784    1.0000 </r>
       <r>  -12.7711    1.0000 </r>
       <r>  -12.4126    1.0000 </r>
       <r>  -12.3859    1.0000 </r>
       <r>  -12.3293    1.0000 </r>
       <r>  -12.1669    1.0000 </r>
       <r>  -12.0002    1.0000 </r>
       <r>  -11.9814    1.0000 </r>
       <r>  -11.9452    1.0000 </r>
       <r>  -11.9243    1.0000 </r>
       <r>  -11.8411    1.0000 </r>
       <r>  -11.0244    1.0000 </r>
       <r>  -10.9295    1.0000 </r>
       <r>  -10.9043    1.0000 </r>
       <r>  -10.8691    1.0000 </r>
       <r>  -10.8299    1.0000 </r>
       <r>  -10.7891    1.0000 </r>
       <r>  -10.7395    1.0000 </r>
       <r>  -10.6858    1.0000 </r>
       <r>  -10.6561    1.0000 </r>
       <r>  -10.5941    1.0000 </r>
       <r>  -10.5092    1.0000 </r>
       <r>  -10.4908    1.0000 </r>
       <r>   -0.4676    1.0000 </r>
       <r>   -0.2885    1.0000 </r>
       <r>   -0.1749    1.0000 </r>
       <r>   -0.0349    1.0000 </r>
       <r>    0.0637    1.0000 </r>
       <r>    0.3076    1.0000 </r>
       <r>    0.5374    1.0000 </r>
       <r>    0.5980    1.0000 </r>
       <r>    0.6821    1.0000 </r>
       <r>    0.7073    1.0000 </r>
       <r>    0.8291    1.0000 </r>
       <r>    1.1279    1.0000 </r>
       <r>    1.1668    1.0000 </r>
       <r>    1.2980    1.0000 </r>
       <r>    1.3708    1.0000 </r>
       <r>    1.4084    1.0000 </r>
       <r>    1.5664    1.0000 </r>
       <r>    1.6477    1.0000 </r>
       <r>    1.6681    1.0000 </r>
       <r>    1.8662    1.0000 </r>
       <r>    2.0859    1.0000 </r>
       <r>    2.2273    1.0000 </r>
       <r>    2.4186    1.0000 </r>
       <r>    2.5087    1.0000 </r>
       <r>    2.6518    1.0000 </r>
       <r>    2.6987    1.0000 </r>
       <r>    2.8035    1.0000 </r>
       <r>    2.9157    1.0000 </r>
       <r>    3.0670    1.0000 </r>
       <r>    3.1327    1.0000 </r>
       <r>    3.1927    1.0000 </r>
       <r>    3.2715    1.0000 </r>
       <r>    3.3407    1.0000 </r>
       <r>    3.3989    1.0000 </r>
       <r>    3.6769    1.0000 </r>
       <r>    3.8158    1.0000 </r>
       <r>    7.0364    1.0251 </r>
       <r>    7.3902    0.1913 </r>
       <r>    7.6579    0.0091 </r>
       <r>    7.7731   -0.0001 </r>
       <r>    8.1470    0.0000 </r>
       <r>    8.5095    0.0000 </r>
       <r>    8.6529    0.0000 </r>
       <r>    8.7526    0.0000 </r>
       <r>    8.8577    0.0000 </r>
       <r>    8.9888    0.0000 </r>
       <r>    9.1966    0.0000 </r>
       <r>    9.3385    0.0000 </r>
       <r>   10.1046    0.0000 </r>
       <r>   10.3385    0.0000 </r>
       <r>   10.4883    0.0000 </r>
       <r>   10.5176    0.0000 </r>
       <r>   10.8490    0.0000 </r>
       <r>   11.0794    0.0000 </r>
       <r>   11.2263    0.0000 </r>
       <r>   11.2722    0.0000 </r>
      </set>
      <set comment="kpoint 6">
       <r>  -51.1323    1.0000 </r>
       <r>  -49.5464    1.0000 </r>
       <r>  -49.5464    1.0000 </r>
       <r>  -49.4396    1.0000 </r>
       <r>  -28.9974    1.0000 </r>
       <r>  -28.9941    1.0000 </r>
       <r>  -28.8774    1.0000 </r>
       <r>  -28.8717    1.0000 </r>
       <r>  -27.4321    1.0000 </r>
       <r>  -27.4310    1.0000 </r>
       <r>  -27.4291    1.0000 </r>
       <r>  -25.7914    1.0000 </r>
       <r>  -25.7899    1.0000 </r>
       <r>  -25.7897    1.0000 </r>
       <r>  -25.7684    1.0000 </r>
       <r>  -25.7683    1.0000 </r>
       <r>  -25.7660    1.0000 </r>
       <r>  -25.6506    1.0000 </r>
       <r>  -25.6481    1.0000 </r>
       <r>  -25.6466    1.0000 </r>
       <r>  -13.0561    1.0000 </r>
       <r>  -12.8950    1.0000 </r>
       <r>  -12.8483    1.0000 </r>
       <r>  -12.7350    1.0000 </r>
       <r>  -12.3789    1.0000 </r>
       <r>  -12.2673    1.0000 </r>
       <r>  -12.1523    1.0000 </r>
       <r>  -12.0206    1.0000 </r>
       <r>  -11.9867    1.0000 </r>
       <r>  -11.9643    1.0000 </r>
       <r>  -11.9207    1.0000 </r>
       <r>  -11.8784    1.0000 </r>
       <r>  -10.9738    1.0000 </r>
       <r>  -10.9083    1.0000 </r>
       <r>  -10.8898    1.0000 </r>
       <r>  -10.8645    1.0000 </r>
       <r>  -10.7587    1.0000 </r>
       <r>  -10.7284    1.0000 </r>
       <r>  -10.6640    1.0000 </r>
       <r>  -10.6525    1.0000 </r>
       <r>  -10.6262    1.0000 </r>
       <r>  -10.5240    1.0000 </r>
       <r>  -10.5090    1.0000 </r>
       <r>  -10.4552    1.0000 </r>
       <r>   -0.4694    1.0000 </r>
       <r>   -0.2563    1.0000 </r>
       <r>   -0.2352    1.0000 </r>
       <r>   -0.0448    1.0000 </r>
       <r>    0.2128    1.0000 </r>
       <r>    0.3304    1.0000 </r>
       <r>    0.4230    1.0000 </r>
       <r>    0.4981    1.0000 </r>
       <r>    0.6405    1.0000 </r>
       <r>    0.8054    1.0000 </r>
       <r>    0.9571    1.0000 </r>
       <r>    1.0733    1.0000 </r>
       <r>    1.1440    1.0000 </r>
       <r>    1.2500    1.0000 </r>
       <r>    1.3618    1.0000 </r>
       <r>    1.4036    1.0000 </r>
       <r>    1.5154    1.0000 </r>
       <r>    1.5946    1.0000 </r>
       <r>    1.7298    1.0000 </r>
       <r>    1.7832    1.0000 </r>
       <r>    2.1074    1.0000 </r>
       <r>    2.2374    1.0000 </r>
       <r>    2.3404    1.0000 </r>
       <r>    2.4325    1.0000 </r>
       <r>    2.6240    1.0000 </r>
       <r>    2.6592    1.0000 </r>
       <r>    2.7062    1.0000 </r>
       <r>    2.8254    1.0000 </r>
       <r>    2.8545    1.0000 </r>
       <r>    2.9455    1.0000 </r>
       <r>    3.0278    1.0000 </r>
       <r>    3.1283    1.0000 </r>
       <r>    3.2562    1.0000 </r>
       <r>    3.4358    1.0000 </r>
       <r>    3.4406    1.0000 </r>
       <r>    3.6818    1.0000 </r>
       <r>    7.3899    0.5734 </r>
       <r>    7.7354   -0.0036 </r>
       <r>    7.9765    0.0000 </r>
       <r>    8.1449    0.0000 </r>
       <r>    8.3112    0.0000 </r>
       <r>    8.4935    0.0000 </r>
       <r>    8.5983    0.0000 </r>
       <r>    8.6479    0.0000 </r>
       <r>    8.8135    0.0000 </r>
       <r>    8.8342    0.0000 </r>
       <r>    8.9201    0.0000 </r>
       <r>    9.1680    0.0000 </r>
       <r>   10.1906    0.0000 </r>
       <r>   10.4726    0.0000 </r>
       <r>   11.0721    0.0000 </r>
       <r>   11.2031    0.0000 </r>
       <r>   11.2444    0.0000 </r>
       <r>   11.3492    0.0000 </r>
       <r>   11.4276    0.0000 </r>
       <r>   11.5468    0.0000 </r>
      </set>
      <set comment="kpoint 7">
       <r>  -51.1323    1.0000 </r>
       <r>  -49.5464    1.0000 </r>
       <r>  -49.5464    1.0000 </r>
       <r>  -49.4396    1.0000 </r>
       <r>  -28.9998    1.0000 </r>
       <r>  -28.9919    1.0000 </r>
       <r>  -28.8810    1.0000 </r>
       <r>  -28.8673    1.0000 </r>
       <r>  -27.4323    1.0000 </r>
       <r>  -27.4313    1.0000 </r>
       <r>  -27.4290    1.0000 </r>
       <r>  -25.7899    1.0000 </r>
       <r>  -25.7893    1.0000 </r>
       <r>  -25.7891    1.0000 </r>
       <r>  -25.7687    1.0000 </r>
       <r>  -25.7677    1.0000 </r>
       <r>  -25.7674    1.0000 </r>
       <r>  -25.6516    1.0000 </r>
       <r>  -25.6489    1.0000 </r>
       <r>  -25.6471    1.0000 </r>
       <r>  -13.0333    1.0000 </r>
       <r>  -12.9317    1.0000 </r>
       <r>  -12.8758    1.0000 </r>
       <r>  -12.3812    1.0000 </r>
       <r>  -12.3730    1.0000 </r>
       <r>  -12.3606    1.0000 </r>
       <r>  -12.2162    1.0000 </r>
       <r>  -11.9748    1.0000 </r>
       <r>  -11.9497    1.0000 </r>
       <r>  -11.9460    1.0000 </r>
       <r>  -11.9139    1.0000 </r>
       <r>  -11.8338    1.0000 </r>
       <r>  -11.0508    1.0000 </r>
       <r>  -10.9294    1.0000 </r>
       <r>  -10.8817    1.0000 </r>
       <r>  -10.8700    1.0000 </r>
       <r>  -10.8223    1.0000 </r>
       <r>  -10.7889    1.0000 </r>
       <r>  -10.7232    1.0000 </r>
       <r>  -10.7144    1.0000 </r>
       <r>  -10.6420    1.0000 </r>
       <r>  -10.6267    1.0000 </r>
       <r>  -10.4952    1.0000 </r>
       <r>  -10.4906    1.0000 </r>
       <r>   -0.4985    1.0000 </r>
       <r>   -0.2882    1.0000 </r>
       <r>   -0.2336    1.0000 </r>
       <r>    0.0440    1.0000 </r>
       <r>    0.1702    1.0000 </r>
       <r>    0.3619    1.0000 </r>
       <r>    0.5232    1.0000 </r>
       <r>    0.5683    1.0000 </r>
       <r>    0.5913    1.0000 </r>
       <r>    0.7744    1.0000 </r>
       <r>    0.8900    1.0000 </r>
       <r>    0.9203    1.0000 </r>
       <r>    1.1793    1.0000 </r>
       <r>    1.3006    1.0000 </r>
       <r>    1.3636    1.0000 </r>
       <r>    1.5312    1.0000 </r>
       <r>    1.5360    1.0000 </r>
       <r>    1.5501    1.0000 </r>
       <r>    1.6525    1.0000 </r>
       <r>    1.7695    1.0000 </r>
       <r>    2.2131    1.0000 </r>
       <r>    2.3616    1.0000 </r>
       <r>    2.3918    1.0000 </r>
       <r>    2.5374    1.0000 </r>
       <r>    2.5646    1.0000 </r>
       <r>    2.6428    1.0000 </r>
       <r>    2.7748    1.0000 </r>
       <r>    2.9169    1.0000 </r>
       <r>    2.9411    1.0000 </r>
       <r>    3.2117    1.0000 </r>
       <r>    3.2261    1.0000 </r>
       <r>    3.3904    1.0000 </r>
       <r>    3.4160    1.0000 </r>
       <r>    3.4418    1.0000 </r>
       <r>    3.6004    1.0000 </r>
       <r>    3.7575    1.0000 </r>
       <r>    7.2169    0.9623 </r>
       <r>    7.3708    0.2391 </r>
       <r>    7.6772    0.0334 </r>
       <r>    7.7696    0.0000 </r>
       <r>    7.7697    0.0000 </r>
       <r>    8.6126    0.0000 </r>
       <r>    8.7605    0.0000 </r>
       <r>    8.8052    0.0000 </r>
       <r>    8.8955    0.0000 </r>
       <r>    8.8963    0.0000 </r>
       <r>    9.2179    0.0000 </r>
       <r>    9.3138    0.0000 </r>
       <r>   10.0750    0.0000 </r>
       <r>   10.3813    0.0000 </r>
       <r>   10.4197    0.0000 </r>
       <r>   10.4744    0.0000 </r>
       <r>   10.7773    0.0000 </r>
       <r>   11.0159    0.0000 </r>
       <r>   11.3835    0.0000 </r>
       <r>   11.5019    0.0000 </r>
      </set>
      <set comment="kpoint 8">
       <r>  -51.1323    1.0000 </r>
       <r>  -49.5464    1.0000 </r>
       <r>  -49.5464    1.0000 </r>
       <r>  -49.4396    1.0000 </r>
       <r>  -28.9997    1.0000 </r>
       <r>  -28.9920    1.0000 </r>
       <r>  -28.8803    1.0000 </r>
       <r>  -28.8682    1.0000 </r>
       <r>  -27.4326    1.0000 </r>
       <r>  -27.4309    1.0000 </r>
       <r>  -27.4290    1.0000 </r>
       <r>  -25.7910    1.0000 </r>
       <r>  -25.7907    1.0000 </r>
       <r>  -25.7887    1.0000 </r>
       <r>  -25.7684    1.0000 </r>
       <r>  -25.7674    1.0000 </r>
       <r>  -25.7668    1.0000 </r>
       <r>  -25.6510    1.0000 </r>
       <r>  -25.6491    1.0000 </r>
       <r>  -25.6462    1.0000 </r>
       <r>  -13.2244    1.0000 </r>
       <r>  -12.8276    1.0000 </r>
       <r>  -12.6410    1.0000 </r>
       <r>  -12.4698    1.0000 </r>
       <r>  -12.4668    1.0000 </r>
       <r>  -12.2586    1.0000 </r>
       <r>  -12.2232    1.0000 </r>
       <r>  -12.1071    1.0000 </r>
       <r>  -12.1006    1.0000 </r>
       <r>  -11.9506    1.0000 </r>
       <r>  -11.9166    1.0000 </r>
       <r>  -11.7254    1.0000 </r>
       <r>  -10.9345    1.0000 </r>
       <r>  -10.9235    1.0000 </r>
       <r>  -10.9081    1.0000 </r>
       <r>  -10.8873    1.0000 </r>
       <r>  -10.8483    1.0000 </r>
       <r>  -10.8341    1.0000 </r>
       <r>  -10.8225    1.0000 </r>
       <r>  -10.6433    1.0000 </r>
       <r>  -10.6165    1.0000 </r>
       <r>  -10.5123    1.0000 </r>
       <r>  -10.4926    1.0000 </r>
       <r>  -10.4234    1.0000 </r>
       <r>   -0.3978    1.0000 </r>
       <r>   -0.3901    1.0000 </r>
       <r>   -0.3766    1.0000 </r>
       <r>   -0.2201    1.0000 </r>
       <r>    0.1932    1.0000 </r>
       <r>    0.5353    1.0000 </r>
       <r>    0.5601    1.0000 </r>
       <r>    0.6848    1.0000 </r>
       <r>    0.7611    1.0000 </r>
       <r>    0.8109    1.0000 </r>
       <r>    0.9443    1.0000 </r>
       <r>    1.1995    1.0000 </r>
       <r>    1.2133    1.0000 </r>
       <r>    1.3012    1.0000 </r>
       <r>    1.3024    1.0000 </r>
       <r>    1.4925    1.0000 </r>
       <r>    1.5319    1.0000 </r>
       <r>    1.6120    1.0000 </r>
       <r>    1.7157    1.0000 </r>
       <r>    1.7345    1.0000 </r>
       <r>    1.8025    1.0000 </r>
       <r>    1.9577    1.0000 </r>
       <r>    2.1689    1.0000 </r>
       <r>    2.4428    1.0000 </r>
       <r>    2.5388    1.0000 </r>
       <r>    2.5953    1.0000 </r>
       <r>    2.7028    1.0000 </r>
       <r>    3.0275    1.0000 </r>
       <r>    3.0820    1.0000 </r>
       <r>    3.2106    1.0000 </r>
       <r>    3.2446    1.0000 </r>
       <r>    3.2907    1.0000 </r>
       <r>    3.3474    1.0000 </r>
       <r>    3.4273    1.0000 </r>
       <r>    3.6248    1.0000 </r>
       <r>    3.9427    1.0000 </r>
       <r>    6.7368    1.0000 </r>
       <r>    7.7355   -0.0600 </r>
       <r>    7.7801   -0.0156 </r>
       <r>    7.7828   -0.0001 </r>
       <r>    8.5883    0.0000 </r>
       <r>    8.5984    0.0000 </r>
       <r>    8.6821    0.0000 </r>
       <r>    8.7299    0.0000 </r>
       <r>    8.7442    0.0000 </r>
       <r>    8.7715    0.0000 </r>
       <r>    8.7739    0.0000 </r>
       <r>    9.4555    0.0000 </r>
       <r>    9.9066    0.0000 </r>
       <r>   10.4772    0.0000 </r>
       <r>   10.8382    0.0000 </r>
       <r>   10.8523    0.0000 </r>
       <r>   10.8817    0.0000 </r>
       <r>   11.0564    0.0000 </r>
       <r>   11.0614    0.0000 </r>
       <r>   11.2423    0.0000 </r>
      </set>
      <set comment="kpoint 9">
       <r>  -51.1323    1.0000 </r>
       <r>  -49.5464    1.0000 </r>
       <r>  -49.5464    1.0000 </r>
       <r>  -49.4396    1.0000 </r>
       <r>  -28.9978    1.0000 </r>
       <r>  -28.9937    1.0000 </r>
       <r>  -28.8776    1.0000 </r>
       <r>  -28.8714    1.0000 </r>
       <r>  -27.4321    1.0000 </r>
       <r>  -27.4310    1.0000 </r>
       <r>  -27.4292    1.0000 </r>
       <r>  -25.7923    1.0000 </r>
       <r>  -25.7907    1.0000 </r>
       <r>  -25.7888    1.0000 </r>
       <r>  -25.7681    1.0000 </r>
       <r>  -25.7673    1.0000 </r>
       <r>  -25.7666    1.0000 </r>
       <r>  -25.6505    1.0000 </r>
       <r>  -25.6483    1.0000 </r>
       <r>  -25.6465    1.0000 </r>
       <r>  -13.1479    1.0000 </r>
       <r>  -12.8191    1.0000 </r>
       <r>  -12.8003    1.0000 </r>
       <r>  -12.7050    1.0000 </r>
       <r>  -12.3756    1.0000 </r>
       <r>  -12.2402    1.0000 </r>
       <r>  -12.1743    1.0000 </r>
       <r>  -12.1238    1.0000 </r>
       <r>  -12.0659    1.0000 </r>
       <r>  -11.9559    1.0000 </r>
       <r>  -11.9112    1.0000 </r>
       <r>  -11.7745    1.0000 </r>
       <r>  -10.9565    1.0000 </r>
       <r>  -10.9339    1.0000 </r>
       <r>  -10.8930    1.0000 </r>
       <r>  -10.8614    1.0000 </r>
       <r>  -10.7899    1.0000 </r>
       <r>  -10.7681    1.0000 </r>
       <r>  -10.7045    1.0000 </r>
       <r>  -10.6233    1.0000 </r>
       <r>  -10.5996    1.0000 </r>
       <r>  -10.4992    1.0000 </r>
       <r>  -10.4982    1.0000 </r>
       <r>  -10.4351    1.0000 </r>
       <r>   -0.4047    1.0000 </r>
       <r>   -0.3082    1.0000 </r>
       <r>   -0.2491    1.0000 </r>
       <r>   -0.1555    1.0000 </r>
       <r>    0.1841    1.0000 </r>
       <r>    0.2648    1.0000 </r>
       <r>    0.4765    1.0000 </r>
       <r>    0.4818    1.0000 </r>
       <r>    0.8002    1.0000 </r>
       <r>    0.9774    1.0000 </r>
       <r>    1.0362    1.0000 </r>
       <r>    1.0387    1.0000 </r>
       <r>    1.2370    1.0000 </r>
       <r>    1.2545    1.0000 </r>
       <r>    1.2588    1.0000 </r>
       <r>    1.3582    1.0000 </r>
       <r>    1.5307    1.0000 </r>
       <r>    1.5394    1.0000 </r>
       <r>    1.6428    1.0000 </r>
       <r>    1.7332    1.0000 </r>
       <r>    2.0499    1.0000 </r>
       <r>    2.1215    1.0000 </r>
       <r>    2.4184    1.0000 </r>
       <r>    2.4541    1.0000 </r>
       <r>    2.5397    1.0000 </r>
       <r>    2.7242    1.0000 </r>
       <r>    2.7922    1.0000 </r>
       <r>    2.8039    1.0000 </r>
       <r>    2.8814    1.0000 </r>
       <r>    2.9910    1.0000 </r>
       <r>    3.0381    1.0000 </r>
       <r>    3.0990    1.0000 </r>
       <r>    3.1543    1.0000 </r>
       <r>    3.4436    1.0000 </r>
       <r>    3.4570    1.0000 </r>
       <r>    3.8309    1.0000 </r>
       <r>    7.0535    1.0316 </r>
       <r>    7.9357   -0.0215 </r>
       <r>    7.9369    0.0000 </r>
       <r>    8.3970    0.0000 </r>
       <r>    8.4629    0.0000 </r>
       <r>    8.5137    0.0000 </r>
       <r>    8.5267    0.0000 </r>
       <r>    8.6259    0.0000 </r>
       <r>    8.6571    0.0000 </r>
       <r>    8.7763    0.0000 </r>
       <r>    8.7959    0.0000 </r>
       <r>    9.2475    0.0000 </r>
       <r>   10.1960    0.0000 </r>
       <r>   10.4154    0.0000 </r>
       <r>   11.2305    0.0000 </r>
       <r>   11.2325    0.0000 </r>
       <r>   11.2532    0.0000 </r>
       <r>   11.2988    0.0000 </r>
       <r>   11.3593    0.0000 </r>
       <r>   11.3744    0.0000 </r>
      </set>
      <set comment="kpoint 10">
       <r>  -51.1323    1.0000 </r>
       <r>  -49.5465    1.0000 </r>
       <r>  -49.5464    1.0000 </r>
       <r>  -49.4395    1.0000 </r>
       <r>  -29.0032    1.0000 </r>
       <r>  -28.9889    1.0000 </r>
       <r>  -28.8852    1.0000 </r>
       <r>  -28.8612    1.0000 </r>
       <r>  -27.4324    1.0000 </r>
       <r>  -27.4324    1.0000 </r>
       <r>  -27.4287    1.0000 </r>
       <r>  -25.7877    1.0000 </r>
       <r>  -25.7875    1.0000 </r>
       <r>  -25.7875    1.0000 </r>
       <r>  -25.7683    1.0000 </r>
       <r>  -25.7683    1.0000 </r>
       <r>  -25.7661    1.0000 </r>
       <r>  -25.6529    1.0000 </r>
       <r>  -25.6515    1.0000 </r>
       <r>  -25.6515    1.0000 </r>
       <r>  -13.0366    1.0000 </r>
       <r>  -12.7995    1.0000 </r>
       <r>  -12.4852    1.0000 </r>
       <r>  -12.4852    1.0000 </r>
       <r>  -12.4637    1.0000 </r>
       <r>  -12.2186    1.0000 </r>
       <r>  -12.2186    1.0000 </r>
       <r>  -11.9358    1.0000 </r>
       <r>  -11.9358    1.0000 </r>
       <r>  -11.7754    1.0000 </r>
       <r>  -11.6869    1.0000 </r>
       <r>  -11.6869    1.0000 </r>
       <r>  -11.1000    1.0000 </r>
       <r>  -11.1000    1.0000 </r>
       <r>  -11.0285    1.0000 </r>
       <r>  -10.9794    1.0000 </r>
       <r>  -10.9794    1.0000 </r>
       <r>  -10.8997    1.0000 </r>
       <r>  -10.8407    1.0000 </r>
       <r>  -10.8407    1.0000 </r>
       <r>  -10.8102    1.0000 </r>
       <r>  -10.8102    1.0000 </r>
       <r>  -10.5995    1.0000 </r>
       <r>  -10.5791    1.0000 </r>
       <r>   -0.3764    1.0000 </r>
       <r>   -0.3764    1.0000 </r>
       <r>   -0.0995    1.0000 </r>
       <r>    0.0727    1.0000 </r>
       <r>    0.2707    1.0000 </r>
       <r>    0.2707    1.0000 </r>
       <r>    0.3516    1.0000 </r>
       <r>    0.5432    1.0000 </r>
       <r>    0.5432    1.0000 </r>
       <r>    0.7902    1.0000 </r>
       <r>    0.8652    1.0000 </r>
       <r>    0.8652    1.0000 </r>
       <r>    0.9687    1.0000 </r>
       <r>    1.3069    1.0000 </r>
       <r>    1.3069    1.0000 </r>
       <r>    1.6337    1.0000 </r>
       <r>    1.6337    1.0000 </r>
       <r>    1.6674    1.0000 </r>
       <r>    1.7410    1.0000 </r>
       <r>    1.7410    1.0000 </r>
       <r>    1.9934    1.0000 </r>
       <r>    2.8077    1.0000 </r>
       <r>    2.8077    1.0000 </r>
       <r>    2.9146    1.0000 </r>
       <r>    3.0384    1.0000 </r>
       <r>    3.0384    1.0000 </r>
       <r>    3.2598    1.0000 </r>
       <r>    3.2598    1.0000 </r>
       <r>    3.2976    1.0000 </r>
       <r>    3.4549    1.0000 </r>
       <r>    3.5802    1.0000 </r>
       <r>    3.5802    1.0000 </r>
       <r>    3.6226    1.0000 </r>
       <r>    3.9678    1.0000 </r>
       <r>    3.9678    1.0000 </r>
       <r>    4.0474    1.0000 </r>
       <r>    6.4917    1.0000 </r>
       <r>    6.5189    1.0000 </r>
       <r>    6.5189    1.0000 </r>
       <r>    7.7405   -0.0206 </r>
       <r>    7.7837    0.0000 </r>
       <r>    7.7837    0.0000 </r>
       <r>    8.6727    0.0000 </r>
       <r>    8.6893    0.0000 </r>
       <r>    8.6893    0.0000 </r>
       <r>    9.4829    0.0000 </r>
       <r>    9.4829    0.0000 </r>
       <r>    9.5642    0.0000 </r>
       <r>    9.6587    0.0000 </r>
       <r>    9.7042    0.0000 </r>
       <r>    9.7042    0.0000 </r>
       <r>    9.9050    0.0000 </r>
       <r>    9.9050    0.0000 </r>
       <r>   10.7355    0.0000 </r>
       <r>   10.7355    0.0000 </r>
       <r>   10.7431    0.0000 </r>
      </set>
      <set comment="kpoint 11">
       <r>  -51.1323    1.0000 </r>
       <r>  -49.5465    1.0000 </r>
       <r>  -49.5464    1.0000 </r>
       <r>  -49.4395    1.0000 </r>
       <r>  -29.0022    1.0000 </r>
       <r>  -28.9898    1.0000 </r>
       <r>  -28.8838    1.0000 </r>
       <r>  -28.8633    1.0000 </r>
       <r>  -27.4325    1.0000 </r>
       <r>  -27.4318    1.0000 </r>
       <r>  -27.4288    1.0000 </r>
       <r>  -25.7890    1.0000 </r>
       <r>  -25.7886    1.0000 </r>
       <r>  -25.7885    1.0000 </r>
       <r>  -25.7687    1.0000 </r>
       <r>  -25.7671    1.0000 </r>
       <r>  -25.7668    1.0000 </r>
       <r>  -25.6522    1.0000 </r>
       <r>  -25.6505    1.0000 </r>
       <r>  -25.6492    1.0000 </r>
       <r>  -13.0769    1.0000 </r>
       <r>  -12.9176    1.0000 </r>
       <r>  -12.5882    1.0000 </r>
       <r>  -12.4801    1.0000 </r>
       <r>  -12.3277    1.0000 </r>
       <r>  -12.2385    1.0000 </r>
       <r>  -12.1500    1.0000 </r>
       <r>  -11.9520    1.0000 </r>
       <r>  -11.9164    1.0000 </r>
       <r>  -11.8848    1.0000 </r>
       <r>  -11.8741    1.0000 </r>
       <r>  -11.8729    1.0000 </r>
       <r>  -11.0435    1.0000 </r>
       <r>  -11.0267    1.0000 </r>
       <r>  -10.9300    1.0000 </r>
       <r>  -10.9018    1.0000 </r>
       <r>  -10.8913    1.0000 </r>
       <r>  -10.8590    1.0000 </r>
       <r>  -10.8503    1.0000 </r>
       <r>  -10.7776    1.0000 </r>
       <r>  -10.6999    1.0000 </r>
       <r>  -10.6487    1.0000 </r>
       <r>  -10.5988    1.0000 </r>
       <r>  -10.5867    1.0000 </r>
       <r>   -0.4440    1.0000 </r>
       <r>   -0.4151    1.0000 </r>
       <r>   -0.1448    1.0000 </r>
       <r>    0.0041    1.0000 </r>
       <r>    0.1687    1.0000 </r>
       <r>    0.4230    1.0000 </r>
       <r>    0.5301    1.0000 </r>
       <r>    0.6319    1.0000 </r>
       <r>    0.6688    1.0000 </r>
       <r>    0.6974    1.0000 </r>
       <r>    0.8024    1.0000 </r>
       <r>    0.9054    1.0000 </r>
       <r>    1.1364    1.0000 </r>
       <r>    1.2363    1.0000 </r>
       <r>    1.2645    1.0000 </r>
       <r>    1.4908    1.0000 </r>
       <r>    1.5457    1.0000 </r>
       <r>    1.7014    1.0000 </r>
       <r>    1.7177    1.0000 </r>
       <r>    1.9046    1.0000 </r>
       <r>    2.3748    1.0000 </r>
       <r>    2.4802    1.0000 </r>
       <r>    2.5184    1.0000 </r>
       <r>    2.6240    1.0000 </r>
       <r>    2.6729    1.0000 </r>
       <r>    2.7718    1.0000 </r>
       <r>    3.0528    1.0000 </r>
       <r>    3.1102    1.0000 </r>
       <r>    3.2766    1.0000 </r>
       <r>    3.2917    1.0000 </r>
       <r>    3.4898    1.0000 </r>
       <r>    3.4960    1.0000 </r>
       <r>    3.5464    1.0000 </r>
       <r>    3.6439    1.0000 </r>
       <r>    3.7023    1.0000 </r>
       <r>    4.0201    1.0000 </r>
       <r>    6.4571    1.0000 </r>
       <r>    7.2389    0.7828 </r>
       <r>    7.2393    0.5426 </r>
       <r>    7.6256   -0.0099 </r>
       <r>    7.7614    0.0000 </r>
       <r>    8.1236    0.0000 </r>
       <r>    8.3556    0.0000 </r>
       <r>    8.9516    0.0000 </r>
       <r>    8.9985    0.0000 </r>
       <r>    9.3307    0.0000 </r>
       <r>    9.3406    0.0000 </r>
       <r>    9.6990    0.0000 </r>
       <r>    9.7786    0.0000 </r>
       <r>    9.8730    0.0000 </r>
       <r>    9.9544    0.0000 </r>
       <r>   10.1074    0.0000 </r>
       <r>   10.3906    0.0000 </r>
       <r>   10.7786    0.0000 </r>
       <r>   10.8632    0.0000 </r>
       <r>   11.0323    0.0000 </r>
      </set>
      <set comment="kpoint 12">
       <r>  -51.1323    1.0000 </r>
       <r>  -49.5464    1.0000 </r>
       <r>  -49.5464    1.0000 </r>
       <r>  -49.4396    1.0000 </r>
       <r>  -28.9996    1.0000 </r>
       <r>  -28.9921    1.0000 </r>
       <r>  -28.8803    1.0000 </r>
       <r>  -28.8682    1.0000 </r>
       <r>  -27.4326    1.0000 </r>
       <r>  -27.4309    1.0000 </r>
       <r>  -27.4290    1.0000 </r>
       <r>  -25.7910    1.0000 </r>
       <r>  -25.7906    1.0000 </r>
       <r>  -25.7902    1.0000 </r>
       <r>  -25.7685    1.0000 </r>
       <r>  -25.7670    1.0000 </r>
       <r>  -25.7653    1.0000 </r>
       <r>  -25.6512    1.0000 </r>
       <r>  -25.6491    1.0000 </r>
       <r>  -25.6465    1.0000 </r>
       <r>  -13.1734    1.0000 </r>
       <r>  -12.8397    1.0000 </r>
       <r>  -12.7805    1.0000 </r>
       <r>  -12.4732    1.0000 </r>
       <r>  -12.4645    1.0000 </r>
       <r>  -12.2382    1.0000 </r>
       <r>  -12.1110    1.0000 </r>
       <r>  -12.0747    1.0000 </r>
       <r>  -12.0442    1.0000 </r>
       <r>  -11.9495    1.0000 </r>
       <r>  -11.9475    1.0000 </r>
       <r>  -11.8335    1.0000 </r>
       <r>  -10.9891    1.0000 </r>
       <r>  -10.9546    1.0000 </r>
       <r>  -10.8809    1.0000 </r>
       <r>  -10.8752    1.0000 </r>
       <r>  -10.8575    1.0000 </r>
       <r>  -10.7336    1.0000 </r>
       <r>  -10.7134    1.0000 </r>
       <r>  -10.6629    1.0000 </r>
       <r>  -10.6153    1.0000 </r>
       <r>  -10.5719    1.0000 </r>
       <r>  -10.5194    1.0000 </r>
       <r>  -10.4571    1.0000 </r>
       <r>   -0.3885    1.0000 </r>
       <r>   -0.3253    1.0000 </r>
       <r>   -0.2701    1.0000 </r>
       <r>   -0.2079    1.0000 </r>
       <r>    0.2196    1.0000 </r>
       <r>    0.3262    1.0000 </r>
       <r>    0.4743    1.0000 </r>
       <r>    0.5356    1.0000 </r>
       <r>    0.7898    1.0000 </r>
       <r>    0.7964    1.0000 </r>
       <r>    0.9404    1.0000 </r>
       <r>    1.0618    1.0000 </r>
       <r>    1.1251    1.0000 </r>
       <r>    1.3220    1.0000 </r>
       <r>    1.3975    1.0000 </r>
       <r>    1.4719    1.0000 </r>
       <r>    1.5142    1.0000 </r>
       <r>    1.6939    1.0000 </r>
       <r>    1.8210    1.0000 </r>
       <r>    1.9369    1.0000 </r>
       <r>    1.9574    1.0000 </r>
       <r>    2.0540    1.0000 </r>
       <r>    2.2665    1.0000 </r>
       <r>    2.3217    1.0000 </r>
       <r>    2.5498    1.0000 </r>
       <r>    2.7975    1.0000 </r>
       <r>    2.8688    1.0000 </r>
       <r>    2.9091    1.0000 </r>
       <r>    2.9511    1.0000 </r>
       <r>    3.0085    1.0000 </r>
       <r>    3.1290    1.0000 </r>
       <r>    3.2896    1.0000 </r>
       <r>    3.3135    1.0000 </r>
       <r>    3.3618    1.0000 </r>
       <r>    3.5221    1.0000 </r>
       <r>    3.9551    1.0000 </r>
       <r>    6.6901    1.0253 </r>
       <r>    7.9010   -0.1174 </r>
       <r>    8.0430   -0.0014 </r>
       <r>    8.1403    0.0000 </r>
       <r>    8.2624    0.0000 </r>
       <r>    8.2631    0.0000 </r>
       <r>    8.5577    0.0000 </r>
       <r>    8.6938    0.0000 </r>
       <r>    8.7135    0.0000 </r>
       <r>    8.8838    0.0000 </r>
       <r>    8.8867    0.0000 </r>
       <r>    9.5040    0.0000 </r>
       <r>    9.9058    0.0000 </r>
       <r>   10.5260    0.0000 </r>
       <r>   10.7209    0.0000 </r>
       <r>   10.7484    0.0000 </r>
       <r>   11.0034    0.0000 </r>
       <r>   11.2713    0.0000 </r>
       <r>   11.4259    0.0000 </r>
       <r>   11.4826    0.0000 </r>
      </set>
      <set comment="kpoint 13">
       <r>  -51.1323    1.0000 </r>
       <r>  -49.5464    1.0000 </r>
       <r>  -49.5464    1.0000 </r>
       <r>  -49.4396    1.0000 </r>
       <r>  -28.9993    1.0000 </r>
       <r>  -28.9923    1.0000 </r>
       <r>  -28.8802    1.0000 </r>
       <r>  -28.8683    1.0000 </r>
       <r>  -27.4326    1.0000 </r>
       <r>  -27.4309    1.0000 </r>
       <r>  -27.4290    1.0000 </r>
       <r>  -25.7909    1.0000 </r>
       <r>  -25.7906    1.0000 </r>
       <r>  -25.7889    1.0000 </r>
       <r>  -25.7681    1.0000 </r>
       <r>  -25.7674    1.0000 </r>
       <r>  -25.7669    1.0000 </r>
       <r>  -25.6513    1.0000 </r>
       <r>  -25.6492    1.0000 </r>
       <r>  -25.6462    1.0000 </r>
       <r>  -13.1578    1.0000 </r>
       <r>  -12.8880    1.0000 </r>
       <r>  -12.7412    1.0000 </r>
       <r>  -12.4632    1.0000 </r>
       <r>  -12.4431    1.0000 </r>
       <r>  -12.2309    1.0000 </r>
       <r>  -12.2243    1.0000 </r>
       <r>  -12.1025    1.0000 </r>
       <r>  -12.0639    1.0000 </r>
       <r>  -11.9268    1.0000 </r>
       <r>  -11.8943    1.0000 </r>
       <r>  -11.7754    1.0000 </r>
       <r>  -10.9797    1.0000 </r>
       <r>  -10.9583    1.0000 </r>
       <r>  -10.8734    1.0000 </r>
       <r>  -10.8538    1.0000 </r>
       <r>  -10.8189    1.0000 </r>
       <r>  -10.8031    1.0000 </r>
       <r>  -10.7854    1.0000 </r>
       <r>  -10.6718    1.0000 </r>
       <r>  -10.6314    1.0000 </r>
       <r>  -10.5363    1.0000 </r>
       <r>  -10.5014    1.0000 </r>
       <r>  -10.4350    1.0000 </r>
       <r>   -0.4028    1.0000 </r>
       <r>   -0.3213    1.0000 </r>
       <r>   -0.2904    1.0000 </r>
       <r>   -0.1036    1.0000 </r>
       <r>    0.1557    1.0000 </r>
       <r>    0.3510    1.0000 </r>
       <r>    0.4160    1.0000 </r>
       <r>    0.6172    1.0000 </r>
       <r>    0.7515    1.0000 </r>
       <r>    0.7639    1.0000 </r>
       <r>    0.9477    1.0000 </r>
       <r>    1.0904    1.0000 </r>
       <r>    1.2506    1.0000 </r>
       <r>    1.3065    1.0000 </r>
       <r>    1.3360    1.0000 </r>
       <r>    1.4438    1.0000 </r>
       <r>    1.5507    1.0000 </r>
       <r>    1.5885    1.0000 </r>
       <r>    1.7016    1.0000 </r>
       <r>    1.7336    1.0000 </r>
       <r>    1.8184    1.0000 </r>
       <r>    2.3478    1.0000 </r>
       <r>    2.4192    1.0000 </r>
       <r>    2.4629    1.0000 </r>
       <r>    2.5344    1.0000 </r>
       <r>    2.7299    1.0000 </r>
       <r>    2.8085    1.0000 </r>
       <r>    2.9142    1.0000 </r>
       <r>    3.0028    1.0000 </r>
       <r>    3.0539    1.0000 </r>
       <r>    3.1385    1.0000 </r>
       <r>    3.1797    1.0000 </r>
       <r>    3.2938    1.0000 </r>
       <r>    3.3953    1.0000 </r>
       <r>    3.6704    1.0000 </r>
       <r>    3.8708    1.0000 </r>
       <r>    7.0395    1.0134 </r>
       <r>    7.3693    0.1124 </r>
       <r>    7.8126   -0.0199 </r>
       <r>    7.8173    0.0000 </r>
       <r>    8.5168    0.0000 </r>
       <r>    8.5515    0.0000 </r>
       <r>    8.7161    0.0000 </r>
       <r>    8.7317    0.0000 </r>
       <r>    8.8000    0.0000 </r>
[...]
       <r>  -12.3859    1.0000 </r>
       <r>  -12.3140    1.0000 </r>
       <r>  -12.2432    1.0000 </r>
       <r>  -12.2281    1.0000 </r>
       <r>  -12.0356    1.0000 </r>
       <r>  -11.9509    1.0000 </r>
       <r>  -11.9118    1.0000 </r>
       <r>  -11.8614    1.0000 </r>
       <r>  -11.8329    1.0000 </r>
       <r>  -11.0594    1.0000 </r>
       <r>  -11.0178    1.0000 </r>
       <r>  -10.9135    1.0000 </r>
       <r>  -10.9040    1.0000 </r>
       <r>  -10.8884    1.0000 </r>
       <r>  -10.8387    1.0000 </r>
       <r>  -10.8093    1.0000 </r>
       <r>  -10.7498    1.0000 </r>
       <r>  -10.6948    1.0000 </r>
       <r>  -10.6823    1.0000 </r>
       <r>  -10.6296    1.0000 </r>
       <r>  -10.6006    1.0000 </r>
       <r>   -0.4485    1.0000 </r>
       <r>   -0.3826    1.0000 </r>
       <r>   -0.1470    1.0000 </r>
       <r>   -0.0596    1.0000 </r>
       <r>    0.1209    1.0000 </r>
       <r>    0.4185    1.0000 </r>
       <r>    0.5586    1.0000 </r>
       <r>    0.5622    1.0000 </r>
       <r>    0.6919    1.0000 </r>
       <r>    0.7939    1.0000 </r>
       <r>    0.8074    1.0000 </r>
       <r>    0.9527    1.0000 </r>
       <r>    1.0009    1.0000 </r>
       <r>    1.2544    1.0000 </r>
       <r>    1.3469    1.0000 </r>
       <r>    1.5853    1.0000 </r>
       <r>    1.6560    1.0000 </r>
       <r>    1.6679    1.0000 </r>
       <r>    1.7122    1.0000 </r>
       <r>    2.1433    1.0000 </r>
       <r>    2.1458    1.0000 </r>
       <r>    2.2426    1.0000 </r>
       <r>    2.5093    1.0000 </r>
       <r>    2.5710    1.0000 </r>
       <r>    2.7160    1.0000 </r>
       <r>    2.8143    1.0000 </r>
       <r>    3.1566    1.0000 </r>
       <r>    3.2280    1.0000 </r>
       <r>    3.2800    1.0000 </r>
       <r>    3.2983    1.0000 </r>
       <r>    3.3958    1.0000 </r>
       <r>    3.4195    1.0000 </r>
       <r>    3.4962    1.0000 </r>
       <r>    3.5562    1.0000 </r>
       <r>    3.7676    1.0000 </r>
       <r>    3.9767    1.0000 </r>
       <r>    6.6162    1.0000 </r>
       <r>    7.2218    0.8446 </r>
       <r>    7.3599    0.2943 </r>
       <r>    7.6228   -0.0255 </r>
       <r>    7.6300    0.0000 </r>
       <r>    7.6854    0.0000 </r>
       <r>    8.7594    0.0000 </r>
       <r>    9.0197    0.0000 </r>
       <r>    9.0445    0.0000 </r>
       <r>    9.2624    0.0000 </r>
       <r>    9.3395    0.0000 </r>
       <r>    9.5871    0.0000 </r>
       <r>    9.9007    0.0000 </r>
       <r>   10.0802    0.0000 </r>
       <r>   10.2304    0.0000 </r>
       <r>   10.2635    0.0000 </r>
       <r>   10.4167    0.0000 </r>
       <r>   10.4810    0.0000 </r>
       <r>   10.6620    0.0000 </r>
       <r>   10.7692    0.0000 </r>
      </set>
     </set>
    </set>
   </array>
  </eigenvalues>
  <separator name="orbital magnetization" >
   <v name="MAGDIPOLOUT">      0.00000000      0.00000000      0.00000000</v>
  </separator>
  <dos>
   <i name="efermi">      7.28318827 </i>
   <total>
    <array>
     <dimension dim="1">gridpoints</dimension>
     <dimension dim="2">spin</dimension>
     <field>energy</field>
     <field>total</field>
     <field>integrated</field>
     <set>
      <set comment="spin 1">
       <r>   -54.2662     0.0000     0.0000 </r>
       <r>   -54.0364     0.0000     0.0000 </r>
       <r>   -53.8066     0.0000     0.0000 </r>
       <r>   -53.5768     0.0000     0.0000 </r>
       <r>   -53.3469     0.0000     0.0000 </r>
       <r>   -53.1171     0.0000     0.0000 </r>
       <r>   -52.8873     0.0000     0.0000 </r>
       <r>   -52.6575     0.0000     0.0000 </r>
       <r>   -52.4277     0.0000     0.0000 </r>
       <r>   -52.1978     0.0000     0.0000 </r>
       <r>   -51.9680     0.0000     0.0000 </r>
       <r>   -51.7382     0.0000     0.0000 </r>
       <r>   -51.5084     0.0000     0.0000 </r>
       <r>   -51.2785     0.0000     0.0000 </r>
       <r>   -51.0487     0.0000     2.0000 </r>
       <r>   -50.8189     0.0000     2.0000 </r>
       <r>   -50.5891     0.0000     2.0000 </r>
       <r>   -50.3592     0.0000     2.0000 </r>
       <r>   -50.1294     0.0000     2.0000 </r>
       <r>   -49.8996     0.0000     2.0000 </r>
       <r>   -49.6698     0.0000     2.0000 </r>
       <r>   -49.4400     0.0000     6.0000 </r>
       <r>   -49.2101     0.0000     8.0000 </r>
       <r>   -48.9803     0.0000     8.0000 </r>
       <r>   -48.7505     0.0000     8.0000 </r>
       <r>   -48.5207     0.0000     8.0000 </r>
       <r>   -48.2908     0.0000     8.0000 </r>
       <r>   -48.0610     0.0000     8.0000 </r>
       <r>   -47.8312     0.0000     8.0000 </r>
       <r>   -47.6014     0.0000     8.0000 </r>
       <r>   -47.3715     0.0000     8.0000 </r>
       <r>   -47.1417     0.0000     8.0000 </r>
       <r>   -46.9119     0.0000     8.0000 </r>
       <r>   -46.6821     0.0000     8.0000 </r>
       <r>   -46.4522     0.0000     8.0000 </r>
       <r>   -46.2224     0.0000     8.0000 </r>
       <r>   -45.9926     0.0000     8.0000 </r>
       <r>   -45.7628     0.0000     8.0000 </r>
       <r>   -45.5330     0.0000     8.0000 </r>
       <r>   -45.3031     0.0000     8.0000 </r>
       <r>   -45.0733     0.0000     8.0000 </r>
       <r>   -44.8435     0.0000     8.0000 </r>
       <r>   -44.6137     0.0000     8.0000 </r>
       <r>   -44.3838     0.0000     8.0000 </r>
       <r>   -44.1540     0.0000     8.0000 </r>
       <r>   -43.9242     0.0000     8.0000 </r>
       <r>   -43.6944     0.0000     8.0000 </r>
       <r>   -43.4645     0.0000     8.0000 </r>
       <r>   -43.2347     0.0000     8.0000 </r>
       <r>   -43.0049     0.0000     8.0000 </r>
       <r>   -42.7751     0.0000     8.0000 </r>
       <r>   -42.5452     0.0000     8.0000 </r>
       <r>   -42.3154     0.0000     8.0000 </r>
       <r>   -42.0856     0.0000     8.0000 </r>
       <r>   -41.8558     0.0000     8.0000 </r>
       <r>   -41.6260     0.0000     8.0000 </r>
       <r>   -41.3961     0.0000     8.0000 </r>
       <r>   -41.1663     0.0000     8.0000 </r>
       <r>   -40.9365     0.0000     8.0000 </r>
       <r>   -40.7067     0.0000     8.0000 </r>
       <r>   -40.4768     0.0000     8.0000 </r>
       <r>   -40.2470     0.0000     8.0000 </r>
       <r>   -40.0172     0.0000     8.0000 </r>
       <r>   -39.7874     0.0000     8.0000 </r>
       <r>   -39.5575     0.0000     8.0000 </r>
       <r>   -39.3277     0.0000     8.0000 </r>
       <r>   -39.0979     0.0000     8.0000 </r>
       <r>   -38.8681     0.0000     8.0000 </r>
       <r>   -38.6383     0.0000     8.0000 </r>
       <r>   -38.4084     0.0000     8.0000 </r>
       <r>   -38.1786     0.0000     8.0000 </r>
       <r>   -37.9488     0.0000     8.0000 </r>
       <r>   -37.7190     0.0000     8.0000 </r>
       <r>   -37.4891     0.0000     8.0000 </r>
       <r>   -37.2593     0.0000     8.0000 </r>
       <r>   -37.0295     0.0000     8.0000 </r>
       <r>   -36.7997     0.0000     8.0000 </r>
       <r>   -36.5698     0.0000     8.0000 </r>
       <r>   -36.3400     0.0000     8.0000 </r>
       <r>   -36.1102     0.0000     8.0000 </r>
       <r>   -35.8804     0.0000     8.0000 </r>
       <r>   -35.6505     0.0000     8.0000 </r>
       <r>   -35.4207     0.0000     8.0000 </r>
       <r>   -35.1909     0.0000     8.0000 </r>
       <r>   -34.9611     0.0000     8.0000 </r>
       <r>   -34.7313     0.0000     8.0000 </r>
       <r>   -34.5014     0.0000     8.0000 </r>
       <r>   -34.2716     0.0000     8.0000 </r>
       <r>   -34.0418     0.0000     8.0000 </r>
       <r>   -33.8120     0.0000     8.0000 </r>
       <r>   -33.5821     0.0000     8.0000 </r>
       <r>   -33.3523     0.0000     8.0000 </r>
       <r>   -33.1225     0.0000     8.0000 </r>
       <r>   -32.8927     0.0000     8.0000 </r>
       <r>   -32.6628     0.0000     8.0000 </r>
       <r>   -32.4330     0.0000     8.0000 </r>
       <r>   -32.2032     0.0000     8.0000 </r>
       <r>   -31.9734     0.0000     8.0000 </r>
       <r>   -31.7436     0.0000     8.0000 </r>
       <r>   -31.5137     0.0000     8.0000 </r>
       <r>   -31.2839     0.0000     8.0000 </r>
       <r>   -31.0541     0.0000     8.0000 </r>
       <r>   -30.8243     0.0000     8.0000 </r>
       <r>   -30.5944     0.0000     8.0000 </r>
       <r>   -30.3646     0.0000     8.0000 </r>
       <r>   -30.1348     0.0000     8.0000 </r>
       <r>   -29.9050     0.0000     8.0000 </r>
       <r>   -29.6751     0.0000     8.0000 </r>
       <r>   -29.4453     0.0000     8.0000 </r>
       <r>   -29.2155     0.0000     8.0000 </r>
       <r>   -28.9857     0.0000    12.0000 </r>
       <r>   -28.7558     0.0000    16.0000 </r>
       <r>   -28.5260     0.0000    16.0000 </r>
       <r>   -28.2962     0.0000    16.0000 </r>
       <r>   -28.0664     0.0000    16.0000 </r>
       <r>   -27.8366     0.0000    16.0000 </r>
       <r>   -27.6067     0.0000    16.0000 </r>
       <r>   -27.3769     0.0000    22.0000 </r>
       <r>   -27.1471     0.0000    22.0000 </r>
       <r>   -26.9173     0.0000    22.0000 </r>
       <r>   -26.6874     0.0000    22.0000 </r>
       <r>   -26.4576     0.0000    22.0000 </r>
       <r>   -26.2278     0.0000    22.0000 </r>
       <r>   -25.9980     0.0000    22.0000 </r>
       <r>   -25.7681  3650.5164    29.4063 </r>
       <r>   -25.5383     0.0000    40.0000 </r>
       <r>   -25.3085     0.0000    40.0000 </r>
       <r>   -25.0787     0.0000    40.0000 </r>
       <r>   -24.8489     0.0000    40.0000 </r>
       <r>   -24.6190     0.0000    40.0000 </r>
       <r>   -24.3892     0.0000    40.0000 </r>
       <r>   -24.1594     0.0000    40.0000 </r>
       <r>   -23.9296     0.0000    40.0000 </r>
       <r>   -23.6997     0.0000    40.0000 </r>
       <r>   -23.4699     0.0000    40.0000 </r>
       <r>   -23.2401     0.0000    40.0000 </r>
       <r>   -23.0103     0.0000    40.0000 </r>
       <r>   -22.7804     0.0000    40.0000 </r>
       <r>   -22.5506     0.0000    40.0000 </r>
       <r>   -22.3208     0.0000    40.0000 </r>
       <r>   -22.0910     0.0000    40.0000 </r>
       <r>   -21.8611     0.0000    40.0000 </r>
       <r>   -21.6313     0.0000    40.0000 </r>
       <r>   -21.4015     0.0000    40.0000 </r>
       <r>   -21.1717     0.0000    40.0000 </r>
       <r>   -20.9419     0.0000    40.0000 </r>
       <r>   -20.7120     0.0000    40.0000 </r>
       <r>   -20.4822     0.0000    40.0000 </r>
       <r>   -20.2524     0.0000    40.0000 </r>
       <r>   -20.0226     0.0000    40.0000 </r>
       <r>   -19.7927     0.0000    40.0000 </r>
       <r>   -19.5629     0.0000    40.0000 </r>
       <r>   -19.3331     0.0000    40.0000 </r>
       <r>   -19.1033     0.0000    40.0000 </r>
       <r>   -18.8734     0.0000    40.0000 </r>
       <r>   -18.6436     0.0000    40.0000 </r>
       <r>   -18.4138     0.0000    40.0000 </r>
       <r>   -18.1840     0.0000    40.0000 </r>
       <r>   -17.9541     0.0000    40.0000 </r>
       <r>   -17.7243     0.0000    40.0000 </r>
       <r>   -17.4945     0.0000    40.0000 </r>
       <r>   -17.2647     0.0000    40.0000 </r>
       <r>   -17.0349     0.0000    40.0000 </r>
       <r>   -16.8050     0.0000    40.0000 </r>
       <r>   -16.5752     0.0000    40.0000 </r>
       <r>   -16.3454     0.0000    40.0000 </r>
       <r>   -16.1156     0.0000    40.0000 </r>
       <r>   -15.8857     0.0000    40.0000 </r>
       <r>   -15.6559     0.0000    40.0000 </r>
       <r>   -15.4261     0.0000    40.0000 </r>
       <r>   -15.1963     0.0000    40.0000 </r>
       <r>   -14.9664     0.0000    40.0000 </r>
       <r>   -14.7366     0.0000    40.0000 </r>
       <r>   -14.5068     0.0000    40.0000 </r>
       <r>   -14.2770     0.0000    40.0000 </r>
       <r>   -14.0472     0.0000    40.0000 </r>
       <r>   -13.8173     0.0000    40.0000 </r>
       <r>   -13.5875     0.0000    40.0000 </r>
       <r>   -13.3577     0.0000    40.0000 </r>
       <r>   -13.1279    11.8315    40.4943 </r>
       <r>   -12.8980    17.6748    43.0690 </r>
       <r>   -12.6682     7.4821    45.5393 </r>
       <r>   -12.4384    20.2871    47.9808 </r>
       <r>   -12.2086    11.4144    52.1136 </r>
       <r>   -11.9787    31.1378    57.4282 </r>
       <r>   -11.7489     6.9091    63.8340 </r>
       <r>   -11.5191     0.0000    64.0000 </r>
       <r>   -11.2893     0.0000    64.0000 </r>
       <r>   -11.0594    16.3053    64.1943 </r>
       <r>   -10.8296    36.4167    73.9396 </r>
       <r>   -10.5998    14.9617    82.9461 </r>
       <r>   -10.3700     0.0000    88.0000 </r>
       <r>   -10.1402     0.0000    88.0000 </r>
       <r>    -9.9103     0.0000    88.0000 </r>
       <r>    -9.6805     0.0000    88.0000 </r>
       <r>    -9.4507     0.0000    88.0000 </r>
       <r>    -9.2209     0.0000    88.0000 </r>
       <r>    -8.9910     0.0000    88.0000 </r>
       <r>    -8.7612     0.0000    88.0000 </r>
       <r>    -8.5314     0.0000    88.0000 </r>
       <r>    -8.3016     0.0000    88.0000 </r>
       <r>    -8.0717     0.0000    88.0000 </r>
       <r>    -7.8419     0.0000    88.0000 </r>
       <r>    -7.6121     0.0000    88.0000 </r>
       <r>    -7.3823     0.0000    88.0000 </r>
       <r>    -7.1525     0.0000    88.0000 </r>
       <r>    -6.9226     0.0000    88.0000 </r>
       <r>    -6.6928     0.0000    88.0000 </r>
       <r>    -6.4630     0.0000    88.0000 </r>
       <r>    -6.2332     0.0000    88.0000 </r>
       <r>    -6.0033     0.0000    88.0000 </r>
       <r>    -5.7735     0.0000    88.0000 </r>
       <r>    -5.5437     0.0000    88.0000 </r>
       <r>    -5.3139     0.0000    88.0000 </r>
       <r>    -5.0840     0.0000    88.0000 </r>
       <r>    -4.8542     0.0000    88.0000 </r>
       <r>    -4.6244     0.0000    88.0000 </r>
       <r>    -4.3946     0.0000    88.0000 </r>
       <r>    -4.1647     0.0000    88.0000 </r>
       <r>    -3.9349     0.0000    88.0000 </r>
       <r>    -3.7051     0.0000    88.0000 </r>
       <r>    -3.4753     0.0000    88.0000 </r>
       <r>    -3.2455     0.0000    88.0000 </r>
       <r>    -3.0156     0.0000    88.0000 </r>
       <r>    -2.7858     0.0000    88.0000 </r>
       <r>    -2.5560     0.0000    88.0000 </r>
       <r>    -2.3262     0.0000    88.0000 </r>
       <r>    -2.0963     0.0000    88.0000 </r>
       <r>    -1.8665     0.0000    88.0000 </r>
       <r>    -1.6367     0.0000    88.0000 </r>
       <r>    -1.4069     0.0000    88.0000 </r>
       <r>    -1.1770     0.0000    88.0000 </r>
       <r>    -0.9472     0.0000    88.0000 </r>
       <r>    -0.7174     0.0000    88.0000 </r>
       <r>    -0.4876     0.6886    88.0025 </r>
       <r>    -0.2578     7.1141    92.2730 </r>
       <r>    -0.0279     6.4799    95.3916 </r>
       <r>     0.2019    21.6251    97.7746 </r>
       <r>     0.4317    14.8224   100.5215 </r>
       <r>     0.6615    14.2407   104.9781 </r>
       <r>     0.8914    15.0800   108.8290 </r>
       <r>     1.1212     8.7088   112.0975 </r>
       <r>     1.3510    17.0161   116.3728 </r>
       <r>     1.5808    27.5314   121.6951 </r>
       <r>     1.8107     9.8818   126.8555 </r>
       <r>     2.0405     9.2766   129.0515 </r>
       <r>     2.2703    11.3114   131.0980 </r>
       <r>     2.5001    14.8230   134.6486 </r>
       <r>     2.7300    20.6809   138.0089 </r>
       <r>     2.9598    25.0027   143.3850 </r>
       <r>     3.1896    25.9319   148.8312 </r>
       <r>     3.4194    19.2697   154.0408 </r>
       <r>     3.6492     7.3824   156.6965 </r>
       <r>     3.8791    11.0861   158.9349 </r>
       <r>     4.1089     0.0000   160.0000 </r>
       <r>     4.3387     0.0000   160.0000 </r>
       <r>     4.5685     0.0000   160.0000 </r>
       <r>     4.7984     0.0000   160.0000 </r>
       <r>     5.0282     0.0000   160.0000 </r>
       <r>     5.2580     0.0000   160.0000 </r>
       <r>     5.4878     0.0000   160.0000 </r>
       <r>     5.7177     0.0000   160.0000 </r>
       <r>     5.9475     0.0000   160.0000 </r>
       <r>     6.1773     0.0000   160.0000 </r>
       <r>     6.4071     0.0250   160.0003 </r>
       <r>     6.6370     2.0986   160.1955 </r>
       <r>     6.8668     4.3899   161.0115 </r>
       <r>     7.0966     5.3865   162.0947 </r>
       <r>     7.3264     3.5289   163.1583 </r>
       <r>     7.5562     4.9796   164.0662 </r>
       <r>     7.7861     8.0903   165.4470 </r>
       <r>     8.0159    11.6685   167.7413 </r>
       <r>     8.2457     6.2394   169.4203 </r>
       <r>     8.4755     8.6932   171.2883 </r>
       <r>     8.7054    26.3901   174.7258 </r>
       <r>     8.9352    10.5356   179.2968 </r>
       <r>     9.1650     3.7047   180.7495 </r>
       <r>     9.3948    12.2177   182.7501 </r>
       <r>     9.6247     1.1324   183.9715 </r>
       <r>     9.8545     4.2178   184.4160 </r>
       <r>    10.0843     8.6191   186.0747 </r>
       <r>    10.3141     5.5324   187.9799 </r>
       <r>    10.5439     4.7694   190.1292 </r>
       <r>    10.7738     8.7148   191.5715 </r>
       <r>    11.0036    12.4780   194.0635 </r>
       <r>    11.2334    13.8882   197.3940 </r>
       <r>    11.4632     4.5246   199.7792 </r>
       <r>    11.6931     0.0000   200.0000 </r>
       <r>    11.9229     0.0000   200.0000 </r>
       <r>    12.1527     0.0000   200.0000 </r>
       <r>    12.3825     0.0000   200.0000 </r>
       <r>    12.6124     0.0000   200.0000 </r>
       <r>    12.8422     0.0000   200.0000 </r>
       <r>    13.0720     0.0000   200.0000 </r>
       <r>    13.3018     0.0000   200.0000 </r>
       <r>    13.5317     0.0000   200.0000 </r>
       <r>    13.7615     0.0000   200.0000 </r>
       <r>    13.9913     0.0000   200.0000 </r>
       <r>    14.2211     0.0000   200.0000 </r>
       <r>    14.4509     0.0000   200.0000 </r>
       <r>    14.6808     0.0000   200.0000 </r>
      </set>
     </set>
    </array>
   </total>
  </dos>
 </calculation>
 <structure name="finalpos" >
  <crystal>
   <varray name="basis" >
    <v>       4.03371823      -8.06259895       4.03371823 </v>
    <v>       8.06259895      -4.03371823       4.03371823 </v>
    <v>       4.03371823      -4.03371823       8.06259895 </v>
   </varray>
   <i name="volume">    261.82079713 </i>
   <varray name="rec_basis" >
    <v>      -0.06207058      -0.18613731      -0.06207058 </v>
    <v>       0.18613731       0.06207058      -0.06207058 </v>
    <v>      -0.06207058       0.06207058       0.18613731 </v>
   </varray>
  </crystal>
  <varray name="positions" >
   <v>       0.37580541       0.37580541       0.37580541 </v>
   <v>       0.62500000       0.62500000       0.62500000 </v>
   <v>       0.87419459       0.87419459       0.87419459 </v>
   <v>       0.24925582       0.75277300       0.24925582 </v>
   <v>       0.00089144       0.49995510       0.49995510 </v>
   <v>       0.24925582       0.24925582       0.75277300 </v>
   <v>       0.49995510       0.00089144       0.49995510 </v>
   <v>       0.24910856       0.75004490       0.75004490 </v>
   <v>       0.49995510       0.49995510       0.00089144 </v>
   <v>       0.75004490       0.24910856       0.75004490 </v>
   <v>       0.49722700       0.00074418       0.00074418 </v>
   <v>       0.75004490       0.75004490       0.24910856 </v>
   <v>       0.00074418       0.49722700       0.00074418 </v>
   <v>       0.75277300       0.24925582       0.24925582 </v>
   <v>       0.00074418       0.00074418       0.49722700 </v>
   <v>       0.75228393       0.75228393       0.75228393 </v>
   <v>       0.00274042       0.00274042       0.00274042 </v>
   <v>       0.24725958       0.24725958       0.24725958 </v>
   <v>       0.49771607       0.49771607       0.49771607 </v>
   <v>       0.12500000       0.12500000       0.12500000 </v>
  </varray>
 </structure>
</modeling>
