 running on  100 total cores
 distrk:  each k-point on  100 cores,    1 groups
 distr:  one band on   25 cores,    4 groups
 using from now: INCAR     
 vasp.5.4.4.18Apr17-6-g9f103f2a35 (build May 23 2017 16:08:52) complex          
  
 POSCAR found :  4 types and      75 ions
 scaLAPACK will be used

 ----------------------------------------------------------------------------- 
|                                                                             |
|           W    W    AA    RRRRR   N    N  II  N    N   GGGG   !!!           |
|           W    W   A  A   R    R  NN   N  II  NN   N  G    G  !!!           |
|           W    W  A    A  R    R  N N  N  II  N N  N  G       !!!           |
|           W WW W  AAAAAA  RRRRR   N  N N  II  N  N N  G  GGG   !            |
|           WW  WW  A    A  R   R   N   NN  II  N   NN  G    G                |
|           W    W  A    A  R    R  N    N  II  N    N   GGGG   !!!           |
|                                                                             |
|      For optimal performance we recommend to set                            |
|        NCORE= 4 - approx SQRT( number of cores)                             |
|      NCORE specifies how many cores store one orbital (NPAR=cpu/NCORE).     |
|      This setting can  greatly improve the performance of VASP for DFT.     |
|      The default,   NCORE=1            might be grossly inefficient         |
|      on modern multi-core architectures or massively parallel machines.     |
|      Do your own testing !!!!                                               |
|      Unfortunately you need to use the default for GW and RPA calculations. |
|      (for HF NCORE is supported but not extensively tested yet)             |
|                                                                             |
 ----------------------------------------------------------------------------- 


 ----------------------------------------------------------------------------- 
|                                                                             |
|  ADVICE TO THIS USER RUNNING 'VASP/VAMP'   (HEAR YOUR MASTER'S VOICE ...):  |
|                                                                             |
|      You have a (more or less) 'large supercell' and for larger cells       |
|      it might be more efficient to use real space projection opertators     |
|      So try LREAL= Auto  in the INCAR   file.                               |
|      Mind:          For very  accurate calculation you might also keep the  |
|      reciprocal projection scheme          (i.e. LREAL=.FALSE.)             |
|                                                                             |
 ----------------------------------------------------------------------------- 

 LDA part: xc-table for Pade appr. of Perdew
 POSCAR, INCAR and KPOINTS ok, starting setup
 FFT: planning ...
 WAVECAR not read
 entering main loop
       N       E                     dE             d eps       ncg     rms          rms(c)
DAV:   1     0.783645800442E+04    0.78365E+04   -0.29731E+05 11648   0.175E+03
DAV:   2     0.956249502980E+03   -0.68802E+04   -0.65053E+04 11664   0.547E+02
DAV:   3    -0.610739090664E+03   -0.15670E+04   -0.15102E+04 15932   0.240E+02
DAV:   4    -0.735705372162E+03   -0.12497E+03   -0.12382E+03 16696   0.749E+01
DAV:   5    -0.746541376236E+03   -0.10836E+02   -0.10770E+02 21408   0.186E+01    0.965E+01
DAV:   6    -0.602986375375E+03    0.14356E+03   -0.83425E+02 16464   0.692E+01    0.569E+01
DAV:   7    -0.605726144678E+03   -0.27398E+01   -0.14684E+02 16008   0.268E+01    0.399E+01
DAV:   8    -0.612740712296E+03   -0.70146E+01   -0.51308E+01 16504   0.231E+01    0.202E+01
DAV:   9    -0.606384080541E+03    0.63566E+01   -0.28602E+01 16072   0.162E+01    0.107E+01
DAV:  10    -0.604857618924E+03    0.15265E+01   -0.84553E+00 16888   0.748E+00    0.523E+00
DAV:  11    -0.604451362397E+03    0.40626E+00   -0.30778E+00 18336   0.420E+00    0.358E+00
DAV:  12    -0.604433902401E+03    0.17460E-01   -0.11819E+00 16516   0.274E+00    0.249E+00
DAV:  13    -0.604450241823E+03   -0.16339E-01   -0.77819E-01 16864   0.212E+00    0.196E+00
DAV:  14    -0.604408608886E+03    0.41633E-01   -0.12966E-01 17116   0.109E+00    0.903E-01
DAV:  15    -0.604402336557E+03    0.62723E-02   -0.62100E-02 18064   0.569E-01    0.409E-01
DAV:  16    -0.604404166725E+03   -0.18302E-02   -0.12555E-02 16556   0.316E-01    0.221E-01
DAV:  17    -0.604403820008E+03    0.34672E-03   -0.37509E-03 17680   0.238E-01    0.120E-01
DAV:  18    -0.604403355885E+03    0.46412E-03   -0.14233E-03 16680   0.129E-01    0.802E-02
DAV:  19    -0.604404301334E+03   -0.94545E-03   -0.97513E-04 17656   0.863E-02    0.398E-02
DAV:  20    -0.604404064432E+03    0.23690E-03   -0.24718E-04 14424   0.386E-02    0.230E-02
DAV:  21    -0.604404015812E+03    0.48620E-04   -0.35774E-05 10376   0.242E-02    0.168E-02
DAV:  22    -0.604404001999E+03    0.13813E-04   -0.11104E-05  7088   0.141E-02    0.101E-02
DAV:  23    -0.604404007811E+03   -0.58115E-05   -0.94349E-06  6752   0.961E-03
   1 F= -.60440401E+03 E0= -.60440401E+03  d E =-.604404E+03
 curvature:   0.00 expect dE= 0.000E+00 dE for cont linesearch  0.000E+00
 trial: gam= 0.00000 g(F)=  0.902E+00 g(S)=  0.838E+00 ort = 0.000E+00 (trialstep = 0.100E+01)
 search vector abs. value=  0.174E+01
 bond charge predicted
       N       E                     dE             d eps       ncg     rms          rms(c)
DAV:   1    -0.607140121335E+03   -0.27361E+01   -0.28162E+02 14356   0.578E+01    0.189E+01
DAV:   2    -0.606238359275E+03    0.90176E+00   -0.49926E+01 13780   0.174E+01    0.106E+01
DAV:   3    -0.606029636442E+03    0.20872E+00   -0.10860E+01 16552   0.870E+00    0.862E+00
DAV:   4    -0.605270548007E+03    0.75909E+00   -0.83873E+00 15376   0.848E+00    0.620E+00
DAV:   5    -0.605012055388E+03    0.25849E+00   -0.33633E+00 17044   0.519E+00    0.399E+00
DAV:   6    -0.604805161047E+03    0.20689E+00   -0.70322E-01 16984   0.255E+00    0.265E+00
DAV:   7    -0.604791635246E+03    0.13526E-01   -0.21121E-01 17520   0.116E+00    0.203E+00
DAV:   8    -0.604792494900E+03   -0.85965E-03   -0.44314E-02 19336   0.563E-01    0.162E+00
DAV:   9    -0.604809443751E+03   -0.16949E-01   -0.73577E-02 17968   0.674E-01    0.941E-01
DAV:  10    -0.604809159603E+03    0.28415E-03   -0.78882E-02 17176   0.708E-01    0.540E-01
DAV:  11    -0.604807081969E+03    0.20776E-02   -0.21256E-02 17784   0.382E-01    0.194E-01
DAV:  12    -0.604806836997E+03    0.24497E-03   -0.37394E-03 17488   0.157E-01    0.143E-01
DAV:  13    -0.604807185667E+03   -0.34867E-03   -0.15704E-03 15636   0.838E-02    0.754E-02
DAV:  14    -0.604806890319E+03    0.29535E-03   -0.37298E-04 17088   0.577E-02    0.405E-02
DAV:  15    -0.604807106692E+03   -0.21637E-03   -0.23025E-04 14836   0.360E-02    0.236E-02
DAV:  16    -0.604807058409E+03    0.48283E-04   -0.44509E-05 10656   0.193E-02    0.136E-02
DAV:  17    -0.604807015207E+03    0.43202E-04   -0.12183E-05  6864   0.126E-02    0.715E-03
DAV:  18    -0.604807038623E+03   -0.23415E-04   -0.76617E-06  6784   0.968E-03    0.669E-03
DAV:  19    -0.604807022020E+03    0.16603E-04   -0.83991E-06  6612   0.774E-03    0.152E-02
DAV:  20    -0.604807025841E+03   -0.38218E-05   -0.18733E-05  6400   0.379E-03
   2 F= -.60480703E+03 E0= -.60480703E+03  d E =-.403018E+00
 trial-energy change:   -0.403018  1 .order   -0.415898   -1.739674    0.907878
 step:   0.6505(harm=  0.6571)  dis= 0.03415  next Energy=  -604.966250 (dE=-0.562E+00)
 bond charge predicted
       N       E                     dE             d eps       ncg     rms          rms(c)
DAV:   1    -0.605313208298E+03   -0.50619E+00   -0.34630E+01 14740   0.205E+01    0.674E+00
DAV:   2    -0.605139392216E+03    0.17382E+00   -0.56158E+00 13580   0.572E+00    0.347E+00
DAV:   3    -0.605135489835E+03    0.39024E-02   -0.18699E+00 16304   0.337E+00    0.330E+00
DAV:   4    -0.605013983993E+03    0.12151E+00   -0.12301E+00 15040   0.291E+00    0.189E+00
DAV:   5    -0.604971825016E+03    0.42159E-01   -0.66318E-01 16064   0.176E+00    0.111E+00
DAV:   6    -0.604960372588E+03    0.11452E-01   -0.91067E-02 16776   0.893E-01    0.624E-01
DAV:   7    -0.604961516882E+03   -0.11443E-02   -0.17188E-02 18880   0.319E-01    0.569E-01
DAV:   8    -0.604962338610E+03   -0.82173E-03   -0.20157E-03 17872   0.108E-01    0.519E-01
DAV:   9    -0.604964775341E+03   -0.24367E-02   -0.39816E-03 16720   0.180E-01    0.287E-01
DAV:  10    -0.604966022730E+03   -0.12474E-02   -0.43051E-03 17816   0.205E-01    0.115E-01
DAV:  11    -0.604965915178E+03    0.10755E-03   -0.16319E-03 17864   0.102E-01    0.706E-02
DAV:  12    -0.604965873320E+03    0.41858E-04   -0.28594E-04 17608   0.528E-02    0.466E-02
DAV:  13    -0.604965931483E+03   -0.58163E-04   -0.77033E-05 12944   0.263E-02    0.320E-02
DAV:  14    -0.604965857950E+03    0.73533E-04   -0.55804E-05 11520   0.213E-02    0.151E-02
DAV:  15    -0.604965920857E+03   -0.62907E-04   -0.25064E-05  7560   0.151E-02    0.991E-03
DAV:  16    -0.604965911397E+03    0.94596E-05   -0.66220E-06  6472   0.841E-03
   3 F= -.60496591E+03 E0= -.60496591E+03  d E =-.561904E+00
 curvature:  -0.33 expect dE=-0.691E-01 dE for cont linesearch -0.183E-03
 trial: gam= 0.13877 g(F)=  0.135E+00 g(S)=  0.751E-01 ort =-0.311E-01 (trialstep = 0.930E+00)
 search vector abs. value=  0.235E+00
 bond charge predicted
       N       E                     dE             d eps       ncg     rms          rms(c)
DAV:   1    -0.605025824556E+03   -0.59904E-01   -0.26236E+01 14256   0.144E+01    0.328E+00
DAV:   2    -0.605111249980E+03   -0.85425E-01   -0.24063E+00 13316   0.348E+00    0.202E+00
DAV:   3    -0.605099695402E+03    0.11555E-01   -0.27079E-01 18216   0.132E+00    0.108E+00
DAV:   4    -0.605119490335E+03   -0.19795E-01   -0.36614E-01 16344   0.142E+00    0.146E+00
DAV:   5    -0.605093931754E+03    0.25559E-01   -0.18721E-01 15212   0.106E+00    0.739E-01
DAV:   6    -0.605088772334E+03    0.51594E-02   -0.72687E-02 16984   0.542E-01    0.448E-01
DAV:   7    -0.605089317369E+03   -0.54504E-03   -0.84842E-03 17548   0.258E-01    0.323E-01
DAV:   8    -0.605090007682E+03   -0.69031E-03   -0.17540E-03 19632   0.130E-01    0.277E-01
DAV:   9    -0.605091041305E+03   -0.10336E-02   -0.11182E-03 16840   0.125E-01    0.168E-01
DAV:  10    -0.605091458368E+03   -0.41706E-03   -0.14262E-03 17200   0.123E-01    0.710E-02
DAV:  11    -0.605091496161E+03   -0.37793E-04   -0.29051E-04 17072   0.661E-02    0.420E-02
DAV:  12    -0.605091492481E+03    0.36804E-05   -0.12966E-04 15524   0.282E-02    0.295E-02
DAV:  13    -0.605091404056E+03    0.88425E-04   -0.27951E-05  9428   0.177E-02    0.157E-02
DAV:  14    -0.605091428227E+03   -0.24171E-04   -0.23756E-05  7032   0.133E-02    0.134E-02
DAV:  15    -0.605091354440E+03    0.73787E-04   -0.35940E-05  6788   0.131E-02    0.120E-02
DAV:  16    -0.605091388209E+03   -0.33769E-04   -0.22338E-05  6764   0.908E-03    0.602E-03
DAV:  17    -0.605091375244E+03    0.12966E-04   -0.22539E-06  6352   0.426E-03    0.295E-03
DAV:  18    -0.605091365211E+03    0.10032E-04   -0.12974E-06  6296   0.285E-03    0.183E-03
DAV:  19    -0.605091367199E+03   -0.19876E-05   -0.69994E-07  6288   0.212E-03
   4 F= -.60509137E+03 E0= -.60509137E+03  d E =-.125456E+00
 trial-energy change:   -0.125456  1 .order   -0.120245   -0.191551   -0.048938
 step:   1.1798(harm=  1.2492)  dis= 0.02690  next Energy=  -605.098037 (dE=-0.132E+00)
 bond charge predicted
       N       E                     dE             d eps       ncg     rms          rms(c)
DAV:   1    -0.605095285516E+03   -0.39203E-02   -0.18864E+00 14088   0.387E+00    0.873E-01
DAV:   2    -0.605101694214E+03   -0.64087E-02   -0.17471E-01 13340   0.948E-01    0.554E-01
DAV:   3    -0.605101335713E+03    0.35850E-03   -0.18822E-02 18012   0.370E-01    0.334E-01
DAV:   4    -0.605101328456E+03    0.72562E-05   -0.58262E-02 16208   0.527E-01    0.555E-01
DAV:   5    -0.605099767091E+03    0.15614E-02   -0.13454E-02 15216   0.370E-01    0.178E-01
DAV:   6    -0.605099725439E+03    0.41652E-04   -0.17752E-03 18040   0.163E-01    0.127E-01
DAV:   7    -0.605099897360E+03   -0.17192E-03   -0.37913E-04 16824   0.574E-02    0.102E-01
DAV:   8    -0.605099984286E+03   -0.86926E-04   -0.83510E-05 13368   0.283E-02    0.836E-02
DAV:   9    -0.605100140320E+03   -0.15603E-03   -0.10352E-04 13496   0.499E-02    0.546E-02
DAV:  10    -0.605100426835E+03   -0.28651E-03   -0.79811E-05 12360   0.444E-02    0.211E-02
DAV:  11    -0.605100416463E+03    0.10372E-04   -0.40938E-05 10296   0.195E-02    0.125E-02
DAV:  12    -0.605100438686E+03   -0.22223E-04   -0.99823E-06  6880   0.110E-02    0.787E-03
DAV:  13    -0.605100450940E+03   -0.12255E-04   -0.44050E-06  6496   0.671E-03    0.561E-03
DAV:  14    -0.605100471849E+03   -0.20909E-04   -0.30502E-06  6408   0.636E-03    0.325E-03
DAV:  15    -0.605100473081E+03   -0.12314E-05   -0.16765E-06  6376   0.425E-03
   5 F= -.60510047E+03 E0= -.60510047E+03  d E =-.134562E+00
 curvature:  -0.68 expect dE=-0.611E-01 dE for cont linesearch -0.290E-03
 trial: gam= 0.36858 g(F)=  0.829E-01 g(S)=  0.704E-02 ort = 0.100E-01 (trialstep = 0.980E+00)
 search vector abs. value=  0.129E+00
 bond charge predicted
       N       E                     dE             d eps       ncg     rms          rms(c)
DAV:   1    -0.605033953035E+03    0.66519E-01   -0.17018E+01 13072   0.119E+01    0.140E+00
DAV:   2    -0.605161805412E+03   -0.12785E+00   -0.15949E+00 13220   0.276E+00    0.142E+00
DAV:   3    -0.605166623657E+03   -0.48182E-02   -0.30558E-01 16808   0.131E+00    0.115E+00
DAV:   4    -0.605158439748E+03    0.81839E-02   -0.16613E-01 15552   0.800E-01    0.669E-01
DAV:   5    -0.605158718136E+03   -0.27839E-03   -0.43194E-02 16528   0.569E-01    0.497E-01
DAV:   6    -0.605157991963E+03    0.72617E-03   -0.19539E-02 17108   0.383E-01    0.281E-01
DAV:   7    -0.605157283597E+03    0.70837E-03   -0.98777E-03 17360   0.226E-01    0.197E-01
DAV:   8    -0.605157563891E+03   -0.28029E-03   -0.26197E-03 16420   0.104E-01    0.145E-01
DAV:   9    -0.605157249431E+03    0.31446E-03   -0.49808E-03 17224   0.738E-02    0.157E-01
DAV:  10    -0.605157579214E+03   -0.32978E-03   -0.14185E-03 15048   0.696E-02    0.586E-02
DAV:  11    -0.605157552571E+03    0.26644E-04   -0.50283E-04 13020   0.352E-02    0.225E-02
DAV:  12    -0.605157520603E+03    0.31967E-04   -0.33423E-05  9008   0.156E-02    0.201E-02
DAV:  13    -0.605157536863E+03   -0.16259E-04   -0.15171E-05  6756   0.119E-02    0.123E-02
DAV:  14    -0.605157526438E+03    0.10425E-04   -0.47335E-06  6664   0.929E-03    0.844E-03
DAV:  15    -0.605157530184E+03   -0.37455E-05   -0.34471E-06  6368   0.527E-03
   6 F= -.60515753E+03 E0= -.60515753E+03  d E =-.570571E-01
 trial-energy change:   -0.057057  1 .order   -0.056182   -0.091784   -0.020581
 step:   1.2391(harm=  1.2633)  dis= 0.02445  next Energy=  -605.160267 (dE=-0.598E-01)
 bond charge predicted
       N       E                     dE             d eps       ncg     rms          rms(c)
DAV:   1    -0.605152224043E+03    0.53024E-02   -0.11897E+00 13208   0.316E+00    0.388E-01
DAV:   2    -0.605161524232E+03   -0.93002E-02   -0.14792E-01 13556   0.812E-01    0.612E-01
DAV:   3    -0.605160733993E+03    0.79024E-03   -0.37536E-02 14956   0.500E-01    0.298E-01
DAV:   4    -0.605160571789E+03    0.16220E-03   -0.10579E-02 17700   0.195E-01    0.226E-01
DAV:   5    -0.605160692636E+03   -0.12085E-03   -0.86259E-03 16456   0.173E-01    0.195E-01
DAV:   6    -0.605160850657E+03   -0.15802E-03   -0.33223E-03 16724   0.142E-01    0.184E-01
DAV:   7    -0.605160786979E+03    0.63679E-04   -0.12096E-03 16252   0.914E-02    0.106E-01
DAV:   8    -0.605160771175E+03    0.15803E-04   -0.69051E-04 15148   0.298E-02    0.522E-02
DAV:   9    -0.605160801012E+03   -0.29837E-04   -0.69482E-04  9264   0.297E-02    0.102E-01
DAV:  10    -0.605160787751E+03    0.13261E-04   -0.50348E-04  7952   0.216E-02    0.359E-02
DAV:  11    -0.605160788431E+03   -0.68035E-06   -0.17512E-04  7576   0.166E-02    0.419E-02
DAV:  12    -0.605160781269E+03    0.71621E-05   -0.36940E-05  7224   0.144E-02
   7 F= -.60516078E+03 E0= -.60516078E+03  d E =-.603082E-01
 curvature:  -0.87 expect dE=-0.222E-01 dE for cont linesearch -0.159E-04
 trial: gam= 0.32668 g(F)=  0.257E-01 g(S)=  0.843E-05 ort = 0.154E-02 (trialstep = 0.103E+01)
 search vector abs. value=  0.405E-01
 bond charge predicted
       N       E                     dE             d eps       ncg     rms          rms(c)
DAV:   1    -0.605135021642E+03    0.25767E-01   -0.62961E+00 12908   0.718E+00    0.788E-01
DAV:   2    -0.605178363492E+03   -0.43342E-01   -0.54816E-01 13168   0.156E+00    0.860E-01
DAV:   3    -0.605179489627E+03   -0.11261E-02   -0.10857E-01 16856   0.761E-01    0.635E-01
DAV:   4    -0.605177970200E+03    0.15194E-02   -0.37572E-02 15272   0.474E-01    0.406E-01
DAV:   5    -0.605177763646E+03    0.20655E-03   -0.24450E-02 15912   0.333E-01    0.325E-01
DAV:   6    -0.605177854516E+03   -0.90869E-04   -0.85539E-03 16732   0.268E-01    0.217E-01
DAV:   7    -0.605177736336E+03    0.11818E-03   -0.29613E-03 17440   0.142E-01    0.903E-02
DAV:   8    -0.605177887943E+03   -0.15161E-03   -0.52528E-04 16556   0.534E-02    0.739E-02
DAV:   9    -0.605177933492E+03   -0.45549E-04   -0.47182E-04 13744   0.380E-02    0.520E-02
DAV:  10    -0.605177996073E+03   -0.62581E-04   -0.11738E-03 11532   0.354E-02    0.181E-01
DAV:  11    -0.605177914685E+03    0.81388E-04   -0.17303E-03  8552   0.291E-02    0.390E-02
DAV:  12    -0.605177965076E+03   -0.50391E-04   -0.57446E-05  7448   0.167E-02    0.385E-02
DAV:  13    -0.605177990390E+03   -0.25314E-04   -0.16276E-04  6772   0.109E-02    0.651E-02
DAV:  14    -0.605177938758E+03    0.51631E-04   -0.29286E-04  6344   0.792E-03    0.335E-02
DAV:  15    -0.605177970185E+03   -0.31426E-04   -0.16396E-05  6228   0.650E-03    0.371E-02
DAV:  16    -0.605177975375E+03   -0.51900E-05   -0.51854E-05  6216   0.381E-03
   8 F= -.60517798E+03 E0= -.60517798E+03  d E =-.171941E-01
 trial-energy change:   -0.017194  1 .order   -0.017592   -0.027007   -0.008178
 step:   1.5888(harm=  1.4800)  dis= 0.01847  next Energy=  -605.180120 (dE=-0.193E-01)
 bond charge predicted
       N       E                     dE             d eps       ncg     rms          rms(c)
DAV:   1    -0.605166730511E+03    0.11240E-01   -0.18340E+00 12940   0.388E+00    0.425E-01
DAV:   2    -0.605179125733E+03   -0.12395E-01   -0.16090E-01 13136   0.841E-01    0.513E-01
DAV:   3    -0.605178932085E+03    0.19365E-03   -0.50767E-02 17552   0.430E-01    0.379E-01
DAV:   4    -0.605179207288E+03   -0.27520E-03   -0.63331E-03 15304   0.276E-01    0.185E-01
DAV:   5    -0.605179358419E+03   -0.15113E-03   -0.28587E-03 18288   0.132E-01    0.239E-01
DAV:   6    -0.605178888134E+03    0.47029E-03   -0.10625E-02 15464   0.162E-01    0.161E-01
DAV:   7    -0.605178947280E+03   -0.59146E-04   -0.85390E-04 15872   0.108E-01    0.403E-02
DAV:   8    -0.605179019192E+03   -0.71912E-04   -0.11492E-04 13600   0.316E-02    0.313E-02
DAV:   9    -0.605179015797E+03    0.33950E-05   -0.23614E-05  9168   0.216E-02
   9 F= -.60517902E+03 E0= -.60517902E+03  d E =-.182345E-01
 curvature:  -1.08 expect dE=-0.976E-02 dE for cont linesearch -0.115E-03
 ZBRENT: interpolating
 opt :   1.4733  next Energy=  -605.179136 (dE=-0.184E-01)
 bond charge predicted
       N       E                     dE             d eps       ncg     rms          rms(c)
DAV:   1    -0.605178765471E+03    0.25372E-03   -0.78851E-02 13008   0.804E-01    0.879E-02
DAV:   2    -0.605179476472E+03   -0.71100E-03   -0.72650E-03 13304   0.173E-01    0.210E-01
DAV:   3    -0.605179117869E+03    0.35860E-03   -0.55363E-03 17116   0.869E-02    0.951E-02
DAV:   4    -0.605179355653E+03   -0.23778E-03   -0.13186E-03 15120   0.639E-02    0.754E-02
DAV:   5    -0.605179293860E+03    0.61793E-04   -0.23950E-04 12640   0.477E-02    0.504E-02
DAV:   6    -0.605179357968E+03   -0.64108E-04   -0.38983E-04  8520   0.271E-02    0.343E-02
DAV:   7    -0.605179360516E+03   -0.25480E-05   -0.36812E-05  7932   0.221E-02
  10 F= -.60517936E+03 E0= -.60517936E+03  d E =-.185792E-01
 curvature:  -1.13 expect dE=-0.873E-02 dE for cont linesearch -0.607E-05
 trial: gam= 0.32607 g(F)=  0.756E-02 g(S)=  0.181E-03 ort =-0.467E-03 (trialstep = 0.112E+01)
 search vector abs. value=  0.117E-01
 bond charge predicted
       N       E                     dE             d eps       ncg     rms          rms(c)
DAV:   1    -0.605159307483E+03    0.20050E-01   -0.23271E+00 13316   0.483E+00    0.513E-01
DAV:   2    -0.605182444788E+03   -0.23137E-01   -0.25968E-01 13008   0.112E+00    0.479E-01
DAV:   3    -0.605182594007E+03   -0.14922E-03   -0.68249E-02 18536   0.538E-01    0.475E-01
DAV:   4    -0.605181495035E+03    0.10990E-02   -0.15337E-02 15524   0.362E-01    0.204E-01
DAV:   5    -0.605182016018E+03   -0.52098E-03   -0.42312E-03 17280   0.174E-01    0.172E-01
DAV:   6    -0.605181880508E+03    0.13551E-03   -0.38364E-03 16800   0.161E-01    0.129E-01
DAV:   7    -0.605181621365E+03    0.25914E-03   -0.96419E-04 16176   0.997E-02    0.683E-02
DAV:   8    -0.605181522426E+03    0.98939E-04   -0.71687E-04 14864   0.533E-02    0.457E-02
DAV:   9    -0.605181505928E+03    0.16498E-04   -0.86005E-05 12728   0.285E-02    0.236E-02
DAV:  10    -0.605181495053E+03    0.10875E-04   -0.16031E-04  9464   0.201E-02    0.423E-02
DAV:  11    -0.605181462799E+03    0.32253E-04   -0.13394E-04  7464   0.177E-02    0.157E-02
DAV:  12    -0.605181471794E+03   -0.89948E-05   -0.37643E-05  6616   0.908E-03
  11 F= -.60518147E+03 E0= -.60518147E+03  d E =-.211128E-02
 trial-energy change:   -0.002111  1 .order   -0.003436   -0.008504    0.001631
 step:   0.7438(harm=  0.9398)  dis= 0.00484  next Energy=  -605.181796 (dE=-0.244E-02)
 bond charge predicted
       N       E                     dE             d eps       ncg     rms          rms(c)
DAV:   1    -0.605179551761E+03    0.19110E-02   -0.26259E-01 13224   0.162E+00    0.176E-01
DAV:   2    -0.605181675593E+03   -0.21238E-02   -0.31220E-02 13048   0.380E-01    0.169E-01
DAV:   3    -0.605182425130E+03   -0.74954E-03   -0.52298E-03 18280   0.178E-01    0.135E-01
DAV:   4    -0.605181830024E+03    0.59511E-03   -0.16229E-03 15312   0.103E-01    0.783E-02
DAV:   5    -0.605182189220E+03   -0.35920E-03   -0.53666E-04 15620   0.772E-02    0.669E-02
DAV:   6    -0.605181931497E+03    0.25772E-03   -0.22407E-04 14360   0.548E-02    0.259E-02
DAV:   7    -0.605181960768E+03   -0.29270E-04   -0.16987E-04  9880   0.187E-02    0.359E-02
DAV:   8    -0.605181992482E+03   -0.31714E-04   -0.49273E-05  7532   0.151E-02    0.209E-02
DAV:   9    -0.605181954741E+03    0.37741E-04   -0.72203E-05  6848   0.124E-02    0.306E-02
DAV:  10    -0.605181951661E+03    0.30805E-05   -0.50745E-05  6560   0.922E-03
  12 F= -.60518195E+03 E0= -.60518195E+03  d E =-.259114E-02
 curvature:   0.13 expect dE= 0.278E-03 dE for cont linesearch  0.295E-04
 ZBRENT: interpolating
 opt :   0.9419  next Energy=  -605.181602 (dE=-0.224E-02)
 bond charge predicted
       N       E                     dE             d eps       ncg     rms          rms(c)
DAV:   1    -0.605181140851E+03    0.81389E-03   -0.72696E-02 13264   0.852E-01    0.922E-02
DAV:   2    -0.605182070287E+03   -0.92944E-03   -0.88316E-03 13048   0.199E-01    0.974E-02
DAV:   3    -0.605181759637E+03    0.31065E-03   -0.18814E-03 18256   0.931E-02    0.805E-02
DAV:   4    -0.605181927856E+03   -0.16822E-03   -0.43691E-04 13792   0.550E-02    0.496E-02
DAV:   5    -0.605181806251E+03    0.12161E-03   -0.46709E-04 13432   0.392E-02    0.427E-02
DAV:   6    -0.605181820806E+03   -0.14555E-04   -0.41354E-05  9964   0.252E-02    0.241E-02
DAV:   7    -0.605181826251E+03   -0.54447E-05   -0.11173E-05  7004   0.123E-02
  13 F= -.60518183E+03 E0= -.60518183E+03  d E =-.246573E-02
 curvature:  -0.58 expect dE=-0.160E-02 dE for cont linesearch -0.165E-06
 trial: gam= 0.32507 g(F)=  0.267E-02 g(S)=  0.693E-04 ort = 0.576E-04 (trialstep = 0.108E+01)
 search vector abs. value=  0.402E-02
 bond charge predicted
       N       E                     dE             d eps       ncg     rms          rms(c)
DAV:   1    -0.605177679215E+03    0.41416E-02   -0.84672E-01 13032   0.251E+00    0.258E-01
DAV:   2    -0.605183620916E+03   -0.59417E-02   -0.62135E-02 13228   0.551E-01    0.248E-01
DAV:   3    -0.605182474984E+03    0.11459E-02   -0.99687E-03 18188   0.247E-01    0.204E-01
DAV:   4    -0.605183220960E+03   -0.74598E-03   -0.35522E-03 15080   0.165E-01    0.127E-01
DAV:   5    -0.605182617427E+03    0.60353E-03   -0.11537E-03 16392   0.107E-01    0.839E-02
DAV:   6    -0.605182737715E+03   -0.12029E-03   -0.37012E-04 16212   0.730E-02    0.302E-02
DAV:   7    -0.605182648255E+03    0.89460E-04   -0.24819E-04 13464   0.328E-02    0.525E-02
DAV:   8    -0.605182716133E+03   -0.67878E-04   -0.22719E-04 10236   0.297E-02    0.290E-02
DAV:   9    -0.605182724968E+03   -0.88355E-05   -0.12402E-05  7840   0.161E-02
  14 F= -.60518272E+03 E0= -.60518272E+03  d E =-.898718E-03
 trial-energy change:   -0.000899  1 .order   -0.001665   -0.002996   -0.000335
 step:   1.2209(harm=  1.2209)  dis= 0.00452  next Energy=  -605.183513 (dE=-0.169E-02)
 bond charge predicted
       N       E                     dE             d eps       ncg     rms          rms(c)
DAV:   1    -0.605182527747E+03    0.18839E-03   -0.13471E-02 13016   0.318E-01    0.383E-02
DAV:   2    -0.605183112844E+03   -0.58510E-03   -0.18678E-03 13768   0.916E-02    0.935E-02
DAV:   3    -0.605182656716E+03    0.45613E-03   -0.61033E-04 13052   0.600E-02    0.314E-02
DAV:   4    -0.605182605039E+03    0.51677E-04   -0.16481E-04 10440   0.251E-02    0.470E-02
DAV:   5    -0.605182675727E+03   -0.70688E-04   -0.10433E-04  8560   0.232E-02    0.219E-02
DAV:   6    -0.605182637343E+03    0.38384E-04   -0.95115E-06  7424   0.152E-02    0.167E-02
DAV:   7    -0.605182695275E+03   -0.57932E-04   -0.84010E-05  6524   0.119E-02    0.404E-02
DAV:   8    -0.605182642366E+03    0.52909E-04   -0.72889E-05  6632   0.895E-03    0.147E-02
DAV:   9    -0.605182653727E+03   -0.11362E-04   -0.28337E-06  6080   0.500E-03    0.132E-02
DAV:  10    -0.605182650185E+03    0.35424E-05   -0.14230E-06  6076   0.391E-03
  15 F= -.60518265E+03 E0= -.60518265E+03  d E =-.823934E-03
 curvature:  -0.89 expect dE=-0.972E-03 dE for cont linesearch -0.722E-06
 trial: gam= 0.38089 g(F)=  0.106E-02 g(S)=  0.296E-04 ort = 0.571E-04 (trialstep = 0.111E+01)
 search vector abs. value=  0.172E-02
 bond charge predicted
       N       E                     dE             d eps       ncg     rms          rms(c)
DAV:   1    -0.605181143675E+03    0.15101E-02   -0.34538E-01 13140   0.157E+00    0.175E-01
DAV:   2    -0.605183496471E+03   -0.23528E-02   -0.23485E-02 12796   0.343E-01    0.166E-01
DAV:   3    -0.605182835366E+03    0.66110E-03   -0.43441E-03 18620   0.167E-01    0.136E-01
DAV:   4    -0.605183357925E+03   -0.52256E-03   -0.11181E-03 15736   0.112E-01    0.899E-02
DAV:   5    -0.605183361837E+03   -0.39118E-05   -0.10039E-03 15400   0.749E-02    0.782E-02
DAV:   6    -0.605183028741E+03    0.33310E-03   -0.13150E-04 14236   0.745E-02    0.471E-02
DAV:   7    -0.605183237742E+03   -0.20900E-03   -0.81784E-05 11600   0.426E-02    0.156E-02
DAV:   8    -0.605183213379E+03    0.24364E-04   -0.19785E-05  9104   0.152E-02    0.894E-03
DAV:   9    -0.605183227318E+03   -0.13939E-04   -0.78314E-06  6936   0.108E-02    0.665E-03
DAV:  10    -0.605183226338E+03    0.97923E-06   -0.62941E-06  6392   0.698E-03
  16 F= -.60518323E+03 E0= -.60518323E+03  d E =-.576153E-03
 trial-energy change:   -0.000576  1 .order   -0.000751   -0.001240   -0.000263
 step:   1.4105(harm=  1.4105)  dis= 0.00404  next Energy=  -605.183437 (dE=-0.787E-03)
 bond charge predicted
       N       E                     dE             d eps       ncg     rms          rms(c)
DAV:   1    -0.605183026693E+03    0.20062E-03   -0.24998E-02 13096   0.422E-01    0.475E-02
DAV:   2    -0.605183283067E+03   -0.25637E-03   -0.18807E-03 12936   0.939E-02    0.674E-02
DAV:   3    -0.605183116856E+03    0.16621E-03   -0.76879E-04 17356   0.462E-02    0.430E-02
DAV:   4    -0.605183226351E+03   -0.10949E-03   -0.67522E-05 10092   0.255E-02    0.215E-02
DAV:   5    -0.605183116054E+03    0.11030E-03   -0.15819E-05  8248   0.226E-02    0.194E-02
DAV:   6    -0.605183261304E+03   -0.14525E-03   -0.48940E-05  7728   0.219E-02    0.443E-02
DAV:   7    -0.605183214542E+03    0.46762E-04   -0.17658E-04  6680   0.103E-02    0.109E-02
DAV:   8    -0.605183199251E+03    0.15291E-04   -0.34206E-06  6616   0.817E-03    0.539E-03
DAV:   9    -0.605183202175E+03   -0.29234E-05   -0.15983E-06  6072   0.367E-03
  17 F= -.60518320E+03 E0= -.60518320E+03  d E =-.551990E-03
 curvature:  -1.09 expect dE=-0.438E-03 dE for cont linesearch -0.425E-06
 trial: gam= 0.36369 g(F)=  0.387E-03 g(S)=  0.159E-04 ort = 0.259E-04 (trialstep = 0.117E+01)
 search vector abs. value=  0.649E-03
 bond charge predicted
       N       E                     dE             d eps       ncg     rms          rms(c)
DAV:   1    -0.605182774628E+03    0.42462E-03   -0.16489E-01 12736   0.111E+00    0.122E-01
DAV:   2    -0.605183485008E+03   -0.71038E-03   -0.11012E-02 13000   0.234E-01    0.928E-02
DAV:   3    -0.605183645957E+03   -0.16095E-03   -0.22191E-03 19408   0.961E-02    0.970E-02
DAV:   4    -0.605183766973E+03   -0.12102E-03   -0.47712E-04 15160   0.691E-02    0.473E-02
DAV:   5    -0.605183400384E+03    0.36659E-03   -0.16323E-04 14960   0.547E-02    0.470E-02
DAV:   6    -0.605183790253E+03   -0.38987E-03   -0.44540E-04 13212   0.521E-02    0.587E-02
DAV:   7    -0.605183649813E+03    0.14044E-03   -0.22174E-04  8420   0.236E-02    0.155E-02
DAV:   8    -0.605183661755E+03   -0.11942E-04   -0.14205E-05  7008   0.117E-02    0.102E-02
DAV:   9    -0.605183662317E+03   -0.56209E-06   -0.58697E-06  6420   0.876E-03
  18 F= -.60518366E+03 E0= -.60518366E+03  d E =-.460142E-03
 trial-energy change:   -0.000460  1 .order   -0.000241   -0.000483    0.000002
 step:   1.1703(harm=  1.1671)  dis= 0.00159  next Energy=  -605.183662 (dE=-0.460E-03)
 bond charge predicted
       N       E                     dE             d eps       ncg     rms          rms(c)
DAV:   1    -0.605183665882E+03   -0.41274E-05   -0.40304E-06  6252   0.674E-03    0.333E-03
DAV:   2    -0.605183685163E+03   -0.19281E-04   -0.38124E-05  6228   0.643E-03    0.450E-02
DAV:   3    -0.605183667215E+03    0.17948E-04   -0.67180E-05  6192   0.469E-03    0.384E-03
DAV:   4    -0.605183672316E+03   -0.51008E-05   -0.10236E-06  6096   0.347E-03
  19 F= -.60518367E+03 E0= -.60518367E+03  d E =-.470141E-03
 curvature:  -0.43 expect dE=-0.627E-04 dE for cont linesearch -0.171E-07
 trial: gam= 0.37538 g(F)=  0.136E-03 g(S)=  0.107E-04 ort =-0.510E-05 (trialstep = 0.117E+01)
 search vector abs. value=  0.234E-03
 bond charge predicted
       N       E                     dE             d eps       ncg     rms          rms(c)
DAV:   1    -0.605183704013E+03   -0.36798E-04   -0.76894E-02 12364   0.614E-01    0.838E-02
DAV:   2    -0.605183909080E+03   -0.20507E-03   -0.52224E-03 13592   0.158E-01    0.131E-01
DAV:   3    -0.605184102310E+03   -0.19323E-03   -0.10905E-03 14448   0.108E-01    0.465E-02
DAV:   4    -0.605183815057E+03    0.28725E-03   -0.16196E-04 15160   0.465E-02    0.377E-02
DAV:   5    -0.605184085804E+03   -0.27075E-03   -0.10416E-04 11724   0.413E-02    0.265E-02
DAV:   6    -0.605183963752E+03    0.12205E-03   -0.32296E-05  8752   0.217E-02    0.978E-03
DAV:   7    -0.605183969346E+03   -0.55943E-05   -0.18525E-05  7020   0.135E-02
  20 F= -.60518397E+03 E0= -.60518397E+03  d E =-.297030E-03
 trial-energy change:   -0.000297  1 .order   -0.000114   -0.000169   -0.000059
 step:   1.2262(harm=  1.7984)  dis= 0.00094  next Energy=  -605.183971 (dE=-0.298E-03)
 reached required accuracy - stopping structural energy minimisation
 writing wavefunctions
