 running on   40 total cores
 distrk:  each k-point on   40 cores,    1 groups
 distr:  one band on   10 cores,    4 groups
 using from now: INCAR     
 vasp.5.4.4.18Apr17-6-g9f103f2a35 (build Oct 23 2017 21:22:35) complex          
  
 POSCAR found :  4 types and      15 ions
 scaLAPACK will be used
 LDA part: xc-table for Pade appr. of Perdew
 POSCAR, INCAR and KPOINTS ok, starting setup
 FFT: planning ...
 WAVECAR not read
 entering main loop
       N       E                     dE             d eps       ncg     rms          rms(c)
DAV:   1     0.133962374331E+04    0.13396E+04   -0.64308E+04  5320   0.165E+03
DAV:   2     0.266336580858E+02   -0.13130E+04   -0.12577E+04  6288   0.529E+02
DAV:   3    -0.131944634090E+03   -0.15858E+03   -0.15614E+03  7196   0.178E+02
DAV:   4    -0.144304575338E+03   -0.12360E+02   -0.12267E+02  9416   0.487E+01
DAV:   5    -0.144822384887E+03   -0.51781E+00   -0.51300E+00  8376   0.760E+00    0.397E+01
DAV:   6    -0.122166196694E+03    0.22656E+02   -0.12817E+02  7528   0.535E+01    0.259E+01
DAV:   7    -0.123206330959E+03   -0.10401E+01   -0.43812E+01  7984   0.286E+01    0.182E+01
DAV:   8    -0.121697145152E+03    0.15092E+01   -0.39992E+00  8392   0.129E+01    0.999E+00
DAV:   9    -0.122146972628E+03   -0.44983E+00   -0.25183E+00  8520   0.657E+00    0.573E+00
DAV:  10    -0.121790645794E+03    0.35633E+00   -0.42985E+00  7248   0.778E+00    0.146E+00
DAV:  11    -0.121752759194E+03    0.37887E-01   -0.20787E-01  7780   0.220E+00    0.614E-01
DAV:  12    -0.121760221202E+03   -0.74620E-02   -0.52071E-02  7600   0.111E+00    0.618E-01
DAV:  13    -0.121754253826E+03    0.59674E-02   -0.23133E-02  7468   0.807E-01    0.105E-01
DAV:  14    -0.121754340106E+03   -0.86279E-04   -0.22205E-03  7940   0.185E-01    0.624E-02
DAV:  15    -0.121754384678E+03   -0.44572E-04   -0.26345E-04  8364   0.756E-02    0.308E-02
DAV:  16    -0.121754352504E+03    0.32174E-04   -0.41805E-05  5728   0.295E-02    0.181E-02
DAV:  17    -0.121754401916E+03   -0.49412E-04   -0.35979E-05  4708   0.297E-02    0.130E-02
DAV:  18    -0.121754391558E+03    0.10358E-04   -0.62805E-06  3804   0.139E-02    0.800E-03
DAV:  19    -0.121754390588E+03    0.96945E-06   -0.22268E-06  3672   0.873E-03
   1 F= -.12175439E+03 E0= -.12175439E+03  d E =-.121754E+03
 curvature:   0.00 expect dE= 0.000E+00 dE for cont linesearch  0.000E+00
 trial: gam= 0.00000 g(F)=  0.161E+00 g(S)=  0.199E+01 ort = 0.000E+00 (trialstep = 0.100E+01)
 search vector abs. value=  0.215E+01
 bond charge predicted
       N       E                     dE             d eps       ncg     rms          rms(c)
DAV:   1    -0.135133826122E+03   -0.13379E+02   -0.45311E+02  6900   0.118E+02    0.328E+01
DAV:   2    -0.127904412416E+03    0.72294E+01   -0.10095E+02  7584   0.499E+01    0.145E+01
DAV:   3    -0.121913614047E+03    0.59908E+01   -0.12409E+01  8104   0.226E+01    0.856E+00
DAV:   4    -0.121492102822E+03    0.42151E+00   -0.54971E+00  7532   0.819E+00    0.680E+00
DAV:   5    -0.121737621743E+03   -0.24552E+00   -0.17875E+00  9488   0.568E+00    0.546E+00
DAV:   6    -0.121628613617E+03    0.10901E+00   -0.68441E-01  7532   0.485E+00    0.304E+00
DAV:   7    -0.121633142776E+03   -0.45292E-02   -0.43070E-01  9164   0.254E+00    0.120E+00
DAV:   8    -0.121641434032E+03   -0.82913E-02   -0.11393E-01  8484   0.136E+00    0.626E-01
DAV:   9    -0.121640556710E+03    0.87732E-03   -0.83757E-02  7520   0.125E+00    0.765E-01
DAV:  10    -0.121635481834E+03    0.50749E-02   -0.14553E-02  7324   0.653E-01    0.233E-01
DAV:  11    -0.121636006645E+03   -0.52481E-03   -0.21010E-03  9032   0.200E-01    0.791E-02
DAV:  12    -0.121636551278E+03   -0.54463E-03   -0.10909E-03  8720   0.138E-01    0.869E-02
DAV:  13    -0.121636070507E+03    0.48077E-03   -0.53287E-04  7128   0.104E-01    0.181E-02
DAV:  14    -0.121636096436E+03   -0.25929E-04   -0.24543E-05  4920   0.225E-02    0.864E-03
DAV:  15    -0.121636095584E+03    0.85162E-06   -0.37868E-06  3876   0.120E-02
   2 F= -.12163610E+03 E0= -.12163610E+03  d E =0.118295E+00
 trial-energy change:    0.118295  1 .order    0.016876   -2.148424    2.182176
 step:   0.4612(harm=  0.4961)  dis= 0.01303  next Energy=  -122.239854 (dE=-0.485E+00)
 bond charge predicted
       N       E                     dE             d eps       ncg     rms          rms(c)
DAV:   1    -0.126311343686E+03   -0.46752E+01   -0.13302E+02  6788   0.624E+01    0.173E+01
DAV:   2    -0.123081007926E+03    0.32303E+01   -0.15058E+01  6408   0.191E+01    0.656E+00
DAV:   3    -0.123105740240E+03   -0.24732E-01   -0.12180E+01  7956   0.140E+01    0.595E+00
DAV:   4    -0.122247381543E+03    0.85836E+00   -0.12215E+00  7780   0.710E+00    0.240E+00
DAV:   5    -0.122186661942E+03    0.60720E-01   -0.43367E-01  9032   0.305E+00    0.126E+00
DAV:   6    -0.122208351667E+03   -0.21690E-01   -0.13212E-01  7804   0.152E+00    0.978E-01
DAV:   7    -0.122221980102E+03   -0.13628E-01   -0.46115E-02  9372   0.781E-01    0.593E-01
DAV:   8    -0.122230609643E+03   -0.86295E-02   -0.37798E-02  8004   0.892E-01    0.487E-01
DAV:   9    -0.122227695825E+03    0.29138E-02   -0.11527E-02  8696   0.505E-01    0.889E-02
DAV:  10    -0.122227940174E+03   -0.24435E-03   -0.11153E-03  8396   0.111E-01    0.360E-02
DAV:  11    -0.122228010519E+03   -0.70346E-04   -0.10707E-04  7864   0.442E-02    0.189E-02
DAV:  12    -0.122228023077E+03   -0.12557E-04   -0.22651E-05  4800   0.222E-02    0.701E-03
DAV:  13    -0.122228052514E+03   -0.29437E-04   -0.84515E-06  3880   0.171E-02    0.970E-03
DAV:  14    -0.122228022734E+03    0.29780E-04   -0.53609E-06  3720   0.148E-02    0.260E-03
DAV:  15    -0.122228014916E+03    0.78179E-05   -0.13960E-06  3584   0.687E-03
   3 F= -.12222801E+03 E0= -.12222801E+03  d E =-.473624E+00
 curvature:  -0.25 expect dE=-0.544E-02 dE for cont linesearch -0.155E-03
 ZBRENT: interpolating
 opt :   0.4534  next Energy=  -122.228157 (dE=-0.474E+00)
 bond charge predicted
       N       E                     dE             d eps       ncg     rms          rms(c)
DAV:   1    -0.122228822632E+03   -0.79990E-03   -0.27534E-02  6808   0.914E-01    0.236E-01
DAV:   2    -0.122228694578E+03    0.12805E-03   -0.35445E-03  6760   0.293E-01    0.108E-01
DAV:   3    -0.122227956885E+03    0.73769E-03   -0.19716E-03  7700   0.207E-01    0.126E-01
DAV:   4    -0.122228125999E+03   -0.16911E-03   -0.81549E-04  7340   0.135E-01    0.293E-02
DAV:   5    -0.122228131063E+03   -0.50641E-05   -0.66058E-05  7184   0.332E-02
   4 F= -.12222813E+03 E0= -.12222813E+03  d E =-.473740E+00
 curvature:  -0.23 expect dE=-0.474E-02 dE for cont linesearch -0.813E-05
 ZBRENT: interpolating
 opt :   0.4510  next Energy=  -122.228142 (dE=-0.474E+00)
 bond charge predicted
       N       E                     dE             d eps       ncg     rms          rms(c)
DAV:   1    -0.122228172347E+03   -0.46348E-04   -0.27226E-03  6892   0.287E-01    0.739E-02
DAV:   2    -0.122228228818E+03   -0.56471E-04   -0.31680E-04  6944   0.894E-02    0.341E-02
DAV:   3    -0.122228015511E+03    0.21331E-03   -0.18326E-04  6788   0.622E-02    0.394E-02
DAV:   4    -0.122228133751E+03   -0.11824E-03   -0.89628E-05  6084   0.445E-02    0.138E-02
DAV:   5    -0.122228134169E+03   -0.41762E-06   -0.69875E-06  3792   0.124E-02
   5 F= -.12222813E+03 E0= -.12222813E+03  d E =-.473744E+00
 curvature:  -0.30 expect dE=-0.613E-02 dE for cont linesearch -0.224E-05
 trial: gam= 0.00770 g(F)=  0.196E-01 g(S)=  0.910E-03 ort = 0.402E-02 (trialstep = 0.890E+00)
 search vector abs. value=  0.207E-01
 bond charge predicted
       N       E                     dE             d eps       ncg     rms          rms(c)
DAV:   1    -0.122238740798E+03   -0.10607E-01   -0.19160E+00  5960   0.539E+00    0.577E-01
DAV:   2    -0.122242750083E+03   -0.40093E-02   -0.95044E-02  6888   0.138E+00    0.475E-01
DAV:   3    -0.122243839569E+03   -0.10895E-02   -0.15410E-02  7964   0.594E-01    0.309E-01
DAV:   4    -0.122242157660E+03    0.16819E-02   -0.48159E-03  8316   0.321E-01    0.164E-01
DAV:   5    -0.122242331888E+03   -0.17423E-03   -0.70070E-04  8108   0.130E-01    0.591E-02
DAV:   6    -0.122242347104E+03   -0.15216E-04   -0.19356E-04  8784   0.546E-02    0.286E-02
DAV:   7    -0.122242368590E+03   -0.21487E-04   -0.36178E-05  5228   0.305E-02    0.143E-02
DAV:   8    -0.122242365529E+03    0.30615E-05   -0.77013E-06  3768   0.157E-02
   6 F= -.12224237E+03 E0= -.12224237E+03  d E =-.142314E-01
 trial-energy change:   -0.014231  1 .order   -0.013573   -0.018330   -0.008816
 step:   1.3905(harm=  1.7150)  dis= 0.02015  next Energy=  -122.244959 (dE=-0.168E-01)
 bond charge predicted
       N       E                     dE             d eps       ncg     rms          rms(c)
DAV:   1    -0.122245200919E+03   -0.28323E-02   -0.60570E-01  6024   0.303E+00    0.326E-01
DAV:   2    -0.122246034104E+03   -0.83319E-03   -0.30746E-02  6896   0.778E-01    0.278E-01
DAV:   3    -0.122246891820E+03   -0.85772E-03   -0.54623E-03  7956   0.345E-01    0.176E-01
DAV:   4    -0.122246087026E+03    0.80479E-03   -0.13792E-03  8204   0.179E-01    0.918E-02
DAV:   5    -0.122246212247E+03   -0.12522E-03   -0.21414E-04  7924   0.718E-02    0.331E-02
DAV:   6    -0.122246219285E+03   -0.70374E-05   -0.58687E-05  6788   0.315E-02
   7 F= -.12224622E+03 E0= -.12224622E+03  d E =-.180851E-01
 curvature:  -0.73 expect dE=-0.152E-01 dE for cont linesearch -0.528E-03
 trial: gam= 0.83342 g(F)=  0.205E-01 g(S)=  0.391E-03 ort = 0.387E-02 (trialstep = 0.492E+00)
 search vector abs. value=  0.417E-01
 bond charge predicted
       N       E                     dE             d eps       ncg     rms          rms(c)
DAV:   1    -0.122253584480E+03   -0.73722E-02   -0.13066E+00  5880   0.454E+00    0.377E-01
DAV:   2    -0.122255981969E+03   -0.23975E-02   -0.46648E-02  6664   0.105E+00    0.296E-01
DAV:   3    -0.122257223669E+03   -0.12417E-02   -0.69025E-03  8292   0.363E-01    0.225E-01
DAV:   4    -0.122256137486E+03    0.10862E-02   -0.20124E-03  7580   0.189E-01    0.119E-01
DAV:   5    -0.122256272058E+03   -0.13457E-03   -0.36170E-04  8128   0.911E-02    0.278E-02
DAV:   6    -0.122256236516E+03    0.35543E-04   -0.45329E-05  6208   0.369E-02    0.139E-02
DAV:   7    -0.122256230873E+03    0.56429E-05   -0.13429E-05  3768   0.186E-02
   8 F= -.12225623E+03 E0= -.12225623E+03  d E =-.100116E-01
 ZBRENT: can't locate minimum, use default step
 trial-energy change:   -0.010012  1 .order   -0.010475   -0.011864   -0.009085
 step:   1.9688(harm=  2.1012)  dis= 0.03910  next Energy=  -122.271544 (dE=-0.253E-01)
 bond charge predicted
       N       E                     dE             d eps       ncg     rms          rms(c)
DAV:   1    -0.122243399874E+03    0.12837E-01   -0.11760E+01  5832   0.136E+01    0.114E+00
DAV:   2    -0.122271676188E+03   -0.28276E-01   -0.43604E-01  6720   0.319E+00    0.895E-01
DAV:   3    -0.122274738315E+03   -0.30621E-02   -0.59179E-02  8716   0.111E+00    0.654E-01
DAV:   4    -0.122270258063E+03    0.44803E-02   -0.17985E-02  7600   0.549E-01    0.359E-01
DAV:   5    -0.122270136622E+03    0.12144E-03   -0.33461E-03  7988   0.284E-01    0.872E-02
DAV:   6    -0.122270015522E+03    0.12110E-03   -0.51333E-04  8504   0.115E-01    0.458E-02
DAV:   7    -0.122270006963E+03    0.85590E-05   -0.12453E-04  6984   0.444E-02    0.252E-02
DAV:   8    -0.122270000909E+03    0.60543E-05   -0.23895E-05  4648   0.274E-02
   9 F= -.12227000E+03 E0= -.12227000E+03  d E =-.237816E-01
 curvature:  -1.81 expect dE=-0.144E-01 dE for cont linesearch -0.150E-03
 ZBRENT: extrapolating
 opt :   2.1343  next Energy=  -122.270155 (dE=-0.239E-01)
 bond charge predicted
       N       E                     dE             d eps       ncg     rms          rms(c)
DAV:   1    -0.122269845686E+03    0.16128E-03   -0.14728E-01  5968   0.153E+00    0.126E-01
DAV:   2    -0.122270055765E+03   -0.21008E-03   -0.52759E-03  6712   0.354E-01    0.982E-02
DAV:   3    -0.122270237587E+03   -0.18182E-03   -0.75863E-04  8292   0.123E-01    0.715E-02
DAV:   4    -0.122270087862E+03    0.14973E-03   -0.19886E-04  6872   0.617E-02    0.385E-02
DAV:   5    -0.122270110111E+03   -0.22250E-04   -0.35598E-05  5260   0.313E-02    0.891E-03
DAV:   6    -0.122270105181E+03    0.49304E-05   -0.56221E-06  3696   0.164E-02
  10 F= -.12227011E+03 E0= -.12227011E+03  d E =-.238859E-01
 curvature:  -1.86 expect dE=-0.193E-01 dE for cont linesearch -0.958E-08
 trial: gam= 0.82960 g(F)=  0.956E-02 g(S)=  0.841E-03 ort = 0.147E-04 (trialstep = 0.821E+00)
 search vector abs. value=  0.392E-01
 bond charge predicted
       N       E                     dE             d eps       ncg     rms          rms(c)
DAV:   1    -0.122271477111E+03   -0.13670E-02   -0.30693E+00  5608   0.576E+00    0.668E-01
DAV:   2    -0.122275149450E+03   -0.36723E-02   -0.86079E-02  6904   0.115E+00    0.476E-01
DAV:   3    -0.122276485549E+03   -0.13361E-02   -0.11251E-02  8768   0.409E-01    0.324E-01
DAV:   4    -0.122275091607E+03    0.13939E-02   -0.64611E-03  7556   0.336E-01    0.233E-01
DAV:   5    -0.122275263713E+03   -0.17211E-03   -0.15155E-03  8060   0.180E-01    0.596E-02
DAV:   6    -0.122275281348E+03   -0.17635E-04   -0.16680E-04  8516   0.468E-02    0.272E-02
DAV:   7    -0.122275289999E+03   -0.86512E-05   -0.19302E-05  4496   0.217E-02
  11 F= -.12227529E+03 E0= -.12227529E+03  d E =-.518482E-02
 trial-energy change:   -0.005185  1 .order   -0.004700   -0.008545   -0.000854
 step:   0.8853(harm=  0.9117)  dis= 0.01842  next Energy=  -122.275324 (dE=-0.522E-02)
 bond charge predicted
       N       E                     dE             d eps       ncg     rms          rms(c)
DAV:   1    -0.122275383195E+03   -0.10185E-03   -0.19116E-02  5956   0.457E-01    0.517E-02
DAV:   2    -0.122275345516E+03    0.37679E-04   -0.54871E-04  6984   0.922E-02    0.375E-02
DAV:   3    -0.122275453351E+03   -0.10784E-03   -0.87976E-05  6792   0.380E-02    0.276E-02
DAV:   4    -0.122275355205E+03    0.98146E-04   -0.36015E-05  4320   0.283E-02    0.169E-02
DAV:   5    -0.122275385023E+03   -0.29818E-04   -0.78943E-06  3648   0.142E-02    0.473E-03
DAV:   6    -0.122275385940E+03   -0.91760E-06   -0.23290E-06  3368   0.795E-03
  12 F= -.12227539E+03 E0= -.12227539E+03  d E =-.528076E-02
 curvature:  -1.57 expect dE=-0.122E-02 dE for cont linesearch -0.456E-05
 ZBRENT: extrapolating
 opt :   0.9163  next Energy=  -122.275391 (dE=-0.529E-02)
 bond charge predicted
       N       E                     dE             d eps       ncg     rms          rms(c)
DAV:   1    -0.122275416539E+03   -0.31516E-04   -0.43654E-03  5808   0.218E-01    0.250E-02
DAV:   2    -0.122275398485E+03    0.18054E-04   -0.12324E-04  6672   0.438E-02    0.185E-02
DAV:   3    -0.122275441401E+03   -0.42916E-04   -0.16157E-05  4716   0.171E-02    0.130E-02
DAV:   4    -0.122275395139E+03    0.46262E-04   -0.91499E-06  3792   0.155E-02    0.867E-03
DAV:   5    -0.122275414253E+03   -0.19114E-04   -0.28274E-06  3136   0.820E-03    0.227E-03
DAV:   6    -0.122275414367E+03   -0.11472E-06   -0.92747E-07  3068   0.522E-03
  13 F= -.12227541E+03 E0= -.12227541E+03  d E =-.530919E-02
 curvature:  -1.80 expect dE=-0.133E-02 dE for cont linesearch -0.128E-06
 trial: gam=-0.04445 g(F)=  0.243E-03 g(S)=  0.496E-03 ort =-0.527E-04 (trialstep = 0.840E+00)
 search vector abs. value=  0.821E-03
 bond charge predicted
       N       E                     dE             d eps       ncg     rms          rms(c)
DAV:   1    -0.122277650208E+03   -0.22360E-02   -0.11464E-01  6248   0.174E+00    0.352E-01
DAV:   2    -0.122276084688E+03    0.15655E-02   -0.79851E-03  6428   0.486E-01    0.166E-01
DAV:   3    -0.122276758571E+03   -0.67388E-03   -0.34687E-03  7976   0.242E-01    0.159E-01
DAV:   4    -0.122275768701E+03    0.98987E-03   -0.19975E-03  7496   0.187E-01    0.520E-02
DAV:   5    -0.122275851476E+03   -0.82775E-04   -0.19702E-04  8436   0.572E-02    0.377E-02
DAV:   6    -0.122275850325E+03    0.11511E-05   -0.14215E-05  4760   0.155E-02
  14 F= -.12227585E+03 E0= -.12227585E+03  d E =-.435957E-03
 trial-energy change:   -0.000436  1 .order   -0.000320   -0.000622   -0.000018
 step:   0.8514(harm=  0.8650)  dis= 0.00108  next Energy=  -122.275850 (dE=-0.436E-03)
 bond charge predicted
       N       E                     dE             d eps       ncg     rms          rms(c)
DAV:   1    -0.122275872398E+03   -0.20922E-04   -0.37490E-05  5312   0.291E-02    0.104E-02
DAV:   2    -0.122275871578E+03    0.81953E-06   -0.71351E-06  3296   0.158E-02
  15 F= -.12227587E+03 E0= -.12227587E+03  d E =-.457211E-03
 curvature:  -0.34 expect dE=-0.575E-04 dE for cont linesearch -0.293E-05
 ZBRENT: interpolating
 opt :   0.8421  next Energy=  -122.275850 (dE=-0.436E-03)
 bond charge predicted
       N       E                     dE             d eps       ncg     rms          rms(c)
DAV:   1    -0.122275868436E+03    0.39619E-05   -0.21403E-05  3356   0.247E-02    0.682E-03
DAV:   2    -0.122275873074E+03   -0.46380E-05   -0.45056E-06  3100   0.149E-02
  16 F= -.12227587E+03 E0= -.12227587E+03  d E =-.458706E-03
 curvature:  -0.00 expect dE=-0.742E-06 dE for cont linesearch -0.613E-07
 ZBRENT: interpolating
 opt :   0.8401  next Energy=  -122.275850 (dE=-0.436E-03)
 bond charge predicted
       N       E                     dE             d eps       ncg     rms          rms(c)
DAV:   1    -0.122275863397E+03    0.50388E-05   -0.28580E-06  3052   0.980E-03    0.378E-03
DAV:   2    -0.122275882947E+03   -0.19550E-04   -0.26974E-06  3024   0.103E-02    0.360E-03
DAV:   3    -0.122275866045E+03    0.16902E-04   -0.16694E-06  2988   0.659E-03    0.215E-03
DAV:   4    -0.122275868624E+03   -0.25782E-05   -0.52318E-07  2984   0.457E-03
  17 F= -.12227587E+03 E0= -.12227587E+03  d E =-.454256E-03
 curvature:  -0.00 expect dE=-0.423E-07 dE for cont linesearch -0.396E-08
 ZBRENT: interpolating
 opt :   0.8398  next Energy=  -122.275850 (dE=-0.436E-03)
 bond charge predicted
       N       E                     dE             d eps       ncg     rms          rms(c)
DAV:   1    -0.122275869054E+03   -0.30085E-05   -0.29321E-07  2984   0.312E-03    0.843E-04
DAV:   2    -0.122275869955E+03   -0.90071E-06   -0.18816E-07  2984   0.271E-03
  18 F= -.12227587E+03 E0= -.12227587E+03  d E =-.455587E-03
 curvature:  -0.00 expect dE=-0.558E-08 dE for cont linesearch -0.533E-09
 ZBRENT: interpolating
 opt :   0.8398  next Energy=  -122.275850 (dE=-0.436E-03)
 bond charge predicted
       N       E                     dE             d eps       ncg     rms          rms(c)
DAV:   1    -0.122275868240E+03    0.81407E-06   -0.13348E-07  2984   0.202E-03    0.625E-04
DAV:   2    -0.122275871272E+03   -0.30322E-05   -0.12012E-07  2984   0.206E-03
  19 F= -.12227587E+03 E0= -.12227587E+03  d E =-.456905E-03
 curvature:  -0.00 expect dE=-0.752E-09 dE for cont linesearch -0.723E-10
 ZBRENT: interpolating
 opt :   0.8398  next Energy=  -122.275850 (dE=-0.436E-03)
 bond charge predicted
       N       E                     dE             d eps       ncg     rms          rms(c)
DAV:   1    -0.122275868687E+03   -0.44707E-06   -0.85162E-08  2976   0.155E-03    0.424E-04
DAV:   2    -0.122275870165E+03   -0.14782E-05   -0.52613E-08  2964   0.133E-03
  20 F= -.12227587E+03 E0= -.12227587E+03  d E =-.455798E-03
 curvature:  -0.00 expect dE=-0.105E-09 dE for cont linesearch -0.102E-10
 ZBRENT: interpolating
 opt :   0.8398  next Energy=  -122.275850 (dE=-0.436E-03)
 bond charge predicted
       N       E                     dE             d eps       ncg     rms          rms(c)
DAV:   1    -0.122275868749E+03   -0.61911E-07   -0.39264E-08  2960   0.105E-03    0.315E-04
DAV:   2    -0.122275869923E+03   -0.11737E-05   -0.28191E-08  2940   0.958E-04
  21 F= -.12227587E+03 E0= -.12227587E+03  d E =-.455555E-03
 curvature:  -0.00 expect dE=-0.143E-10 dE for cont linesearch -0.139E-11
 ZBRENT: interpolating
 opt :   0.8398  next Energy=  -122.275850 (dE=-0.436E-03)
 bond charge predicted
       N       E                     dE             d eps       ncg     rms          rms(c)
DAV:   1    -0.122275868841E+03   -0.92581E-07   -0.21075E-08  2924   0.751E-04    0.227E-04
DAV:   2    -0.122275869643E+03   -0.80194E-06   -0.14749E-08  2916   0.678E-04
  22 F= -.12227587E+03 E0= -.12227587E+03  d E =-.455276E-03
 curvature:  -0.00 expect dE=-0.194E-11 dE for cont linesearch -0.191E-12
 ZBRENT:  accuracy reached
 opt :   0.0000  next Energy=     0.000000 (dE= 0.122E+03)
 bond charge predicted
       N       E                     dE             d eps       ncg     rms          rms(c)
DAV:   1    -0.122276978519E+03   -0.11097E-02   -0.11456E-01  6216   0.174E+00    0.352E-01
DAV:   2    -0.122275972984E+03    0.10055E-02   -0.79549E-03  6428   0.485E-01    0.165E-01
DAV:   3    -0.122275161905E+03    0.81108E-03   -0.33724E-03  7964   0.239E-01    0.151E-01
DAV:   4    -0.122275482296E+03   -0.32039E-03   -0.17098E-03  7536   0.182E-01    0.507E-02
DAV:   5    -0.122275399415E+03    0.82881E-04   -0.18974E-04  8364   0.565E-02    0.370E-02
DAV:   6    -0.122275414278E+03   -0.14863E-04   -0.13717E-05  4704   0.155E-02    0.293E-02
DAV:   7    -0.122275412566E+03    0.17119E-05   -0.30520E-05  5116   0.198E-02
  23 F= -.12227541E+03 E0= -.12227541E+03  d E =0.180178E-05
 curvature:   0.00 expect dE= 0.000E+00 dE for cont linesearch  0.000E+00
 ZBRENT: fatal error in bracketing
     please rerun with smaller EDIFF, or copy CONTCAR
     to POSCAR and continue
