       N       E                     dE             d eps       ncg     rms          rms(c)
DAV:   1    -0.161667991869E+03   -0.16167E+03   -0.11882E-01  3456   0.268E+00    0.290E-02
DAV:   2    -0.161668001218E+03   -0.93494E-05   -0.37772E-05  2920   0.446E-02
   1 F= -.16166800E+03 E0= -.16166800E+03  d E =0.000000E+00
