   5   5   0   0
  0.1336408E+02  0.4057916E-09  0.4057916E-09  0.4057916E-09  0.5000000E-15
  1.000000000000000E-004
  CAR 
 unknown system                          
     14.66243679    -52.15758006  301      7.70792661      1.00000000
    -52.158  0.0000E+00  0.0000E+00
    -51.935  0.0000E+00  0.0000E+00
    -51.712  0.0000E+00  0.0000E+00
    -51.489  0.0000E+00  0.0000E+00
    -51.267  0.0000E+00  0.0000E+00
    -51.044  0.0000E+00  0.0000E+00
    -50.821  0.0000E+00  0.0000E+00
    -50.598  0.0000E+00  0.0000E+00
    -50.376  0.0000E+00  0.0000E+00
    -50.153  0.0000E+00  0.0000E+00
    -49.930  0.0000E+00  0.0000E+00
    -49.708  0.0000E+00  0.0000E+00
    -49.485  0.0000E+00  0.0000E+00
    -49.262  0.0000E+00  0.0000E+00
    -49.039  0.0000E+00  0.2000E+01
    -48.817  0.0000E+00  0.2000E+01
    -48.594  0.0000E+00  0.2000E+01
    -48.371  0.0000E+00  0.2000E+01
    -48.148  0.0000E+00  0.2000E+01
    -47.926  0.0000E+00  0.2000E+01
    -47.703  0.0000E+00  0.2000E+01
    -47.480  0.0000E+00  0.2000E+01
    -47.257  0.0000E+00  0.2000E+01
    -47.035  0.0000E+00  0.2000E+01
    -46.812  0.0000E+00  0.2000E+01
    -46.589  0.0000E+00  0.2000E+01
    -46.367  0.0000E+00  0.2000E+01
    -46.144  0.0000E+00  0.2000E+01
    -45.921  0.0000E+00  0.2000E+01
    -45.698  0.0000E+00  0.2000E+01
    -45.476  0.0000E+00  0.2000E+01
    -45.253  0.0000E+00  0.2000E+01
    -45.030  0.0000E+00  0.2000E+01
    -44.807  0.0000E+00  0.2000E+01
    -44.585  0.0000E+00  0.2000E+01
    -44.362  0.0000E+00  0.2000E+01
    -44.139  0.0000E+00  0.2000E+01
    -43.916  0.0000E+00  0.2000E+01
    -43.694  0.0000E+00  0.2000E+01
    -43.471  0.0000E+00  0.2000E+01
    -43.248  0.0000E+00  0.2000E+01
    -43.026  0.0000E+00  0.2000E+01
    -42.803  0.0000E+00  0.2000E+01
    -42.580  0.0000E+00  0.2000E+01
    -42.357  0.0000E+00  0.2000E+01
    -42.135  0.0000E+00  0.2000E+01
    -41.912  0.0000E+00  0.2000E+01
    -41.689  0.0000E+00  0.2000E+01
    -41.466  0.0000E+00  0.2000E+01
    -41.244  0.0000E+00  0.2000E+01
    -41.021  0.0000E+00  0.2000E+01
    -40.798  0.0000E+00  0.2000E+01
    -40.575  0.0000E+00  0.2000E+01
    -40.353  0.0000E+00  0.2000E+01
    -40.130  0.0000E+00  0.2000E+01
    -39.907  0.0000E+00  0.2000E+01
    -39.685  0.0000E+00  0.2000E+01
    -39.462  0.0000E+00  0.2000E+01
    -39.239  0.0000E+00  0.2000E+01
    -39.016  0.0000E+00  0.2000E+01
    -38.794  0.0000E+00  0.2000E+01
    -38.571  0.0000E+00  0.2000E+01
    -38.348  0.0000E+00  0.2000E+01
    -38.125  0.0000E+00  0.2000E+01
    -37.903  0.0000E+00  0.2000E+01
    -37.680  0.0000E+00  0.2000E+01
    -37.457  0.0000E+00  0.2000E+01
    -37.234  0.0000E+00  0.2000E+01
    -37.012  0.0000E+00  0.2000E+01
    -36.789  0.0000E+00  0.2000E+01
    -36.566  0.0000E+00  0.2000E+01
    -36.344  0.0000E+00  0.2000E+01
    -36.121  0.0000E+00  0.2000E+01
    -35.898  0.0000E+00  0.2000E+01
    -35.675  0.0000E+00  0.2000E+01
    -35.453  0.0000E+00  0.2000E+01
    -35.230  0.0000E+00  0.2000E+01
    -35.007  0.0000E+00  0.2000E+01
    -34.784  0.0000E+00  0.2000E+01
    -34.562  0.0000E+00  0.2000E+01
    -34.339  0.0000E+00  0.2000E+01
    -34.116  0.0000E+00  0.2000E+01
    -33.893  0.0000E+00  0.2000E+01
    -33.671  0.0000E+00  0.2000E+01
    -33.448  0.0000E+00  0.2000E+01
    -33.225  0.0000E+00  0.2000E+01
    -33.003  0.0000E+00  0.2000E+01
    -32.780  0.0000E+00  0.2000E+01
    -32.557  0.0000E+00  0.2000E+01
    -32.334  0.0000E+00  0.2000E+01
    -32.112  0.0000E+00  0.2000E+01
    -31.889  0.0000E+00  0.2000E+01
    -31.666  0.0000E+00  0.2000E+01
    -31.443  0.0000E+00  0.2000E+01
    -31.221  0.0000E+00  0.2000E+01
    -30.998  0.0000E+00  0.2000E+01
    -30.775  0.0000E+00  0.2000E+01
    -30.552  0.0000E+00  0.2000E+01
    -30.330  0.0000E+00  0.2000E+01
    -30.107  0.0000E+00  0.2000E+01
    -29.884  0.0000E+00  0.2000E+01
    -29.662  0.0000E+00  0.2000E+01
    -29.439  0.0000E+00  0.2000E+01
    -29.216  0.0000E+00  0.2000E+01
    -28.993  0.0000E+00  0.2000E+01
    -28.771  0.0000E+00  0.4000E+01
    -28.548  0.0000E+00  0.4000E+01
    -28.325  0.0000E+00  0.4000E+01
    -28.102  0.0000E+00  0.4000E+01
    -27.880  0.0000E+00  0.4000E+01
    -27.657  0.0000E+00  0.4000E+01
    -27.434  0.0000E+00  0.4000E+01
    -27.211  0.0000E+00  0.4000E+01
    -26.989  0.0000E+00  0.4000E+01
    -26.766  0.0000E+00  0.4000E+01
    -26.543  0.0000E+00  0.4000E+01
    -26.321  0.0000E+00  0.4000E+01
    -26.098  0.0000E+00  0.4000E+01
    -25.875  0.0000E+00  0.4000E+01
    -25.652  0.0000E+00  0.4000E+01
    -25.430  0.0000E+00  0.4000E+01
    -25.207  0.0000E+00  0.1000E+02
    -24.984  0.0000E+00  0.1000E+02
    -24.761  0.0000E+00  0.1000E+02
    -24.539  0.0000E+00  0.1000E+02
    -24.316  0.0000E+00  0.1000E+02
    -24.093  0.0000E+00  0.1000E+02
    -23.870  0.0000E+00  0.1000E+02
    -23.648  0.0000E+00  0.1000E+02
    -23.425  0.0000E+00  0.1000E+02
    -23.202  0.0000E+00  0.1000E+02
    -22.980  0.0000E+00  0.1000E+02
    -22.757  0.0000E+00  0.1000E+02
    -22.534  0.0000E+00  0.1000E+02
    -22.311  0.0000E+00  0.1000E+02
    -22.089  0.0000E+00  0.1000E+02
    -21.866  0.0000E+00  0.1000E+02
    -21.643  0.0000E+00  0.1000E+02
    -21.420  0.0000E+00  0.1000E+02
    -21.198  0.0000E+00  0.1000E+02
    -20.975  0.0000E+00  0.1000E+02
    -20.752  0.0000E+00  0.1000E+02
    -20.529  0.0000E+00  0.1000E+02
    -20.307  0.0000E+00  0.1000E+02
    -20.084  0.0000E+00  0.1000E+02
    -19.861  0.0000E+00  0.1000E+02
    -19.639  0.0000E+00  0.1000E+02
    -19.416  0.0000E+00  0.1000E+02
    -19.193  0.0000E+00  0.1000E+02
    -18.970  0.0000E+00  0.1000E+02
    -18.748  0.0000E+00  0.1000E+02
    -18.525  0.0000E+00  0.1000E+02
    -18.302  0.0000E+00  0.1000E+02
    -18.079  0.0000E+00  0.1000E+02
    -17.857  0.0000E+00  0.1000E+02
    -17.634  0.0000E+00  0.1000E+02
    -17.411  0.0000E+00  0.1000E+02
    -17.188  0.0000E+00  0.1000E+02
    -16.966  0.0000E+00  0.1000E+02
    -16.743  0.0000E+00  0.1000E+02
    -16.520  0.0000E+00  0.1000E+02
    -16.298  0.0000E+00  0.1000E+02
    -16.075  0.0000E+00  0.1000E+02
    -15.852  0.0000E+00  0.1000E+02
    -15.629  0.0000E+00  0.1000E+02
    -15.407  0.0000E+00  0.1000E+02
    -15.184  0.0000E+00  0.1000E+02
    -14.961  0.0000E+00  0.1000E+02
    -14.738  0.0000E+00  0.1000E+02
    -14.516  0.0000E+00  0.1000E+02
    -14.293  0.0000E+00  0.1000E+02
    -14.070  0.0000E+00  0.1000E+02
    -13.847  0.0000E+00  0.1000E+02
    -13.625  0.0000E+00  0.1000E+02
    -13.402  0.0000E+00  0.1000E+02
    -13.179  0.0000E+00  0.1000E+02
    -12.957  0.2111E+01  0.1017E+02
    -12.734  0.2973E+01  0.1097E+02
    -12.511  0.1814E+01  0.1150E+02
    -12.288  0.8521E+01  0.1197E+02
    -12.066  0.6555E+01  0.1333E+02
    -11.843  0.8708E+01  0.1513E+02
    -11.620  0.6451E+00  0.1598E+02
    -11.397  0.0000E+00  0.1600E+02
    -11.175  0.0000E+00  0.1600E+02
    -10.952  0.7104E+01  0.1643E+02
    -10.729  0.1004E+02  0.1943E+02
    -10.506  0.1183E+01  0.2199E+02
    -10.284  0.0000E+00  0.2200E+02
    -10.061  0.0000E+00  0.2200E+02
     -9.838  0.0000E+00  0.2200E+02
     -9.616  0.0000E+00  0.2200E+02
     -9.393  0.0000E+00  0.2200E+02
     -9.170  0.0000E+00  0.2200E+02
     -8.947  0.0000E+00  0.2200E+02
     -8.725  0.0000E+00  0.2200E+02
     -8.502  0.0000E+00  0.2200E+02
     -8.279  0.0000E+00  0.2200E+02
     -8.056  0.0000E+00  0.2200E+02
     -7.834  0.0000E+00  0.2200E+02
     -7.611  0.0000E+00  0.2200E+02
     -7.388  0.0000E+00  0.2200E+02
     -7.165  0.0000E+00  0.2200E+02
     -6.943  0.0000E+00  0.2200E+02
     -6.720  0.0000E+00  0.2200E+02
     -6.497  0.0000E+00  0.2200E+02
     -6.275  0.0000E+00  0.2200E+02
     -6.052  0.0000E+00  0.2200E+02
     -5.829  0.0000E+00  0.2200E+02
     -5.606  0.0000E+00  0.2200E+02
     -5.384  0.0000E+00  0.2200E+02
     -5.161  0.0000E+00  0.2200E+02
     -4.938  0.0000E+00  0.2200E+02
     -4.715  0.0000E+00  0.2200E+02
     -4.493  0.0000E+00  0.2200E+02
     -4.270  0.0000E+00  0.2200E+02
     -4.047  0.0000E+00  0.2200E+02
     -3.824  0.0000E+00  0.2200E+02
     -3.602  0.0000E+00  0.2200E+02
     -3.379  0.0000E+00  0.2200E+02
     -3.156  0.0000E+00  0.2200E+02
     -2.934  0.0000E+00  0.2200E+02
     -2.711  0.0000E+00  0.2200E+02
     -2.488  0.0000E+00  0.2200E+02
     -2.265  0.0000E+00  0.2200E+02
     -2.043  0.0000E+00  0.2200E+02
     -1.820  0.0000E+00  0.2200E+02
     -1.597  0.0000E+00  0.2200E+02
     -1.374  0.0000E+00  0.2200E+02
     -1.152  0.0000E+00  0.2200E+02
     -0.929  0.0000E+00  0.2200E+02
     -0.706  0.0000E+00  0.2200E+02
     -0.483  0.0000E+00  0.2200E+02
     -0.261  0.3670E+01  0.2234E+02
     -0.038  0.4342E+01  0.2325E+02
      0.185  0.4012E+01  0.2423E+02
      0.407  0.3201E+01  0.2504E+02
      0.630  0.3410E+01  0.2580E+02
      0.853  0.4113E+01  0.2662E+02
      1.076  0.4983E+01  0.2763E+02
      1.298  0.5424E+01  0.2879E+02
      1.521  0.5084E+01  0.2999E+02
      1.744  0.5278E+01  0.3114E+02
      1.967  0.2136E+01  0.3200E+02
      2.189  0.1907E+01  0.3242E+02
      2.412  0.5076E+01  0.3329E+02
      2.635  0.2149E+01  0.3389E+02
      2.858  0.4972E+01  0.3476E+02
      3.080  0.6924E+01  0.3655E+02
      3.303  0.5822E+01  0.3780E+02
      3.526  0.3353E+01  0.3887E+02
      3.749  0.2219E+01  0.3944E+02
      3.971  0.1033E+01  0.3996E+02
      4.194  0.0000E+00  0.4000E+02
      4.417  0.0000E+00  0.4000E+02
      4.639  0.0000E+00  0.4000E+02
      4.862  0.0000E+00  0.4000E+02
      5.085  0.0000E+00  0.4000E+02
      5.308  0.0000E+00  0.4000E+02
      5.530  0.0000E+00  0.4000E+02
      5.753  0.0000E+00  0.4000E+02
      5.976  0.0000E+00  0.4000E+02
      6.199  0.0000E+00  0.4000E+02
      6.421  0.0000E+00  0.4000E+02
      6.644  0.1972E+00  0.4002E+02
      6.867  0.7272E+00  0.4011E+02
      7.090  0.1112E+01  0.4033E+02
      7.312  0.9822E+00  0.4056E+02
      7.535  0.1116E+01  0.4080E+02
      7.758  0.1287E+01  0.4106E+02
      7.980  0.1694E+01  0.4141E+02
      8.203  0.1766E+01  0.4178E+02
      8.426  0.1946E+01  0.4220E+02
      8.649  0.2332E+01  0.4266E+02
      8.871  0.4124E+01  0.4344E+02
      9.094  0.3519E+01  0.4440E+02
      9.317  0.2171E+01  0.4500E+02
      9.540  0.1717E+01  0.4542E+02
      9.762  0.1464E+01  0.4579E+02
      9.985  0.6122E+00  0.4601E+02
     10.208  0.3048E+00  0.4611E+02
     10.431  0.4430E+00  0.4619E+02
     10.653  0.7730E+00  0.4632E+02
     10.876  0.1289E+01  0.4655E+02
     11.099  0.3402E+01  0.4707E+02
     11.321  0.2660E+01  0.4777E+02
     11.544  0.1635E+00  0.4800E+02
     11.767  0.0000E+00  0.4800E+02
     11.990  0.0000E+00  0.4800E+02
     12.212  0.0000E+00  0.4800E+02
     12.435  0.0000E+00  0.4800E+02
     12.658  0.0000E+00  0.4800E+02
     12.881  0.0000E+00  0.4800E+02
     13.103  0.0000E+00  0.4800E+02
     13.326  0.0000E+00  0.4800E+02
     13.549  0.0000E+00  0.4800E+02
     13.772  0.0000E+00  0.4800E+02
     13.994  0.0000E+00  0.4800E+02
     14.217  0.0000E+00  0.4800E+02
     14.440  0.0000E+00  0.4800E+02
     14.662  0.0000E+00  0.4800E+02
