   5   5   0   0
  0.1223747E+02  0.3940523E-09  0.3940523E-09  0.3940523E-09  0.5000000E-15
  1.000000000000000E-004
  CAR 
 unknown system                          
     14.38731492    -55.82436739  301      3.97258204      1.00000000
    -55.824  0.0000E+00  0.0000E+00
    -55.590  0.0000E+00  0.0000E+00
    -55.356  0.0000E+00  0.0000E+00
    -55.122  0.0000E+00  0.0000E+00
    -54.888  0.0000E+00  0.0000E+00
    -54.654  0.0000E+00  0.0000E+00
    -54.420  0.0000E+00  0.0000E+00
    -54.186  0.0000E+00  0.0000E+00
    -53.952  0.0000E+00  0.0000E+00
    -53.718  0.0000E+00  0.0000E+00
    -53.484  0.0000E+00  0.0000E+00
    -53.250  0.0000E+00  0.0000E+00
    -53.016  0.0000E+00  0.0000E+00
    -52.782  0.0000E+00  0.0000E+00
    -52.548  0.0000E+00  0.2000E+01
    -52.314  0.0000E+00  0.2000E+01
    -52.080  0.0000E+00  0.2000E+01
    -51.846  0.0000E+00  0.2000E+01
    -51.612  0.0000E+00  0.2000E+01
    -51.378  0.0000E+00  0.2000E+01
    -51.144  0.0000E+00  0.2000E+01
    -50.910  0.0000E+00  0.2000E+01
    -50.676  0.0000E+00  0.2000E+01
    -50.441  0.0000E+00  0.2000E+01
    -50.207  0.0000E+00  0.2000E+01
    -49.973  0.0000E+00  0.2000E+01
    -49.739  0.0000E+00  0.2000E+01
    -49.505  0.0000E+00  0.2000E+01
    -49.271  0.0000E+00  0.2000E+01
    -49.037  0.0000E+00  0.2000E+01
    -48.803  0.0000E+00  0.2000E+01
    -48.569  0.0000E+00  0.2000E+01
    -48.335  0.0000E+00  0.2000E+01
    -48.101  0.0000E+00  0.2000E+01
    -47.867  0.0000E+00  0.2000E+01
    -47.633  0.0000E+00  0.2000E+01
    -47.399  0.0000E+00  0.2000E+01
    -47.165  0.0000E+00  0.2000E+01
    -46.931  0.0000E+00  0.2000E+01
    -46.697  0.0000E+00  0.2000E+01
    -46.463  0.0000E+00  0.2000E+01
    -46.229  0.0000E+00  0.2000E+01
    -45.995  0.0000E+00  0.2000E+01
    -45.761  0.0000E+00  0.2000E+01
    -45.527  0.0000E+00  0.2000E+01
    -45.293  0.0000E+00  0.2000E+01
    -45.059  0.0000E+00  0.2000E+01
    -44.825  0.0000E+00  0.2000E+01
    -44.590  0.0000E+00  0.2000E+01
    -44.356  0.0000E+00  0.2000E+01
    -44.122  0.0000E+00  0.2000E+01
    -43.888  0.0000E+00  0.2000E+01
    -43.654  0.0000E+00  0.2000E+01
    -43.420  0.0000E+00  0.2000E+01
    -43.186  0.0000E+00  0.2000E+01
    -42.952  0.0000E+00  0.2000E+01
    -42.718  0.0000E+00  0.2000E+01
    -42.484  0.0000E+00  0.2000E+01
    -42.250  0.0000E+00  0.2000E+01
    -42.016  0.0000E+00  0.2000E+01
    -41.782  0.0000E+00  0.2000E+01
    -41.548  0.0000E+00  0.2000E+01
    -41.314  0.0000E+00  0.2000E+01
    -41.080  0.0000E+00  0.2000E+01
    -40.846  0.0000E+00  0.2000E+01
    -40.612  0.0000E+00  0.2000E+01
    -40.378  0.0000E+00  0.2000E+01
    -40.144  0.0000E+00  0.2000E+01
    -39.910  0.0000E+00  0.2000E+01
    -39.676  0.0000E+00  0.2000E+01
    -39.442  0.0000E+00  0.2000E+01
    -39.208  0.0000E+00  0.2000E+01
    -38.974  0.0000E+00  0.2000E+01
    -38.740  0.0000E+00  0.2000E+01
    -38.505  0.0000E+00  0.2000E+01
    -38.271  0.0000E+00  0.2000E+01
    -38.037  0.0000E+00  0.2000E+01
    -37.803  0.0000E+00  0.2000E+01
    -37.569  0.0000E+00  0.2000E+01
    -37.335  0.0000E+00  0.2000E+01
    -37.101  0.0000E+00  0.2000E+01
    -36.867  0.0000E+00  0.2000E+01
    -36.633  0.0000E+00  0.2000E+01
    -36.399  0.0000E+00  0.2000E+01
    -36.165  0.0000E+00  0.2000E+01
    -35.931  0.0000E+00  0.2000E+01
    -35.697  0.0000E+00  0.2000E+01
    -35.463  0.0000E+00  0.2000E+01
    -35.229  0.0000E+00  0.2000E+01
    -34.995  0.0000E+00  0.2000E+01
    -34.761  0.0000E+00  0.2000E+01
    -34.527  0.0000E+00  0.2000E+01
    -34.293  0.0000E+00  0.2000E+01
    -34.059  0.0000E+00  0.2000E+01
    -33.825  0.0000E+00  0.2000E+01
    -33.591  0.0000E+00  0.2000E+01
    -33.357  0.0000E+00  0.2000E+01
    -33.123  0.0000E+00  0.2000E+01
    -32.889  0.0000E+00  0.2000E+01
    -32.655  0.0000E+00  0.2000E+01
    -32.420  0.0000E+00  0.2000E+01
    -32.186  0.0000E+00  0.2000E+01
    -31.952  0.0000E+00  0.2000E+01
    -31.718  0.0000E+00  0.2000E+01
    -31.484  0.0000E+00  0.2000E+01
    -31.250  0.0000E+00  0.2000E+01
    -31.016  0.0000E+00  0.2000E+01
    -30.782  0.0000E+00  0.2000E+01
    -30.548  0.0000E+00  0.2000E+01
    -30.314  0.0000E+00  0.2000E+01
    -30.080  0.0000E+00  0.2000E+01
    -29.846  0.0000E+00  0.2000E+01
    -29.612  0.0000E+00  0.2000E+01
    -29.378  0.0000E+00  0.2000E+01
    -29.144  0.0000E+00  0.2000E+01
    -28.910  0.3460E+02  0.4439E+01
    -28.676  0.0000E+00  0.1000E+02
    -28.442  0.0000E+00  0.1000E+02
    -28.208  0.0000E+00  0.1000E+02
    -27.974  0.0000E+00  0.1000E+02
    -27.740  0.0000E+00  0.1000E+02
    -27.506  0.0000E+00  0.1000E+02
    -27.272  0.0000E+00  0.1000E+02
    -27.038  0.0000E+00  0.1000E+02
    -26.804  0.0000E+00  0.1000E+02
    -26.569  0.0000E+00  0.1000E+02
    -26.335  0.0000E+00  0.1000E+02
    -26.101  0.0000E+00  0.1000E+02
    -25.867  0.0000E+00  0.1000E+02
    -25.633  0.0000E+00  0.1000E+02
    -25.399  0.0000E+00  0.1000E+02
    -25.165  0.0000E+00  0.1000E+02
    -24.931  0.0000E+00  0.1000E+02
    -24.697  0.0000E+00  0.1000E+02
    -24.463  0.0000E+00  0.1000E+02
    -24.229  0.0000E+00  0.1000E+02
    -23.995  0.0000E+00  0.1000E+02
    -23.761  0.0000E+00  0.1000E+02
    -23.527  0.0000E+00  0.1000E+02
    -23.293  0.0000E+00  0.1000E+02
    -23.059  0.0000E+00  0.1000E+02
    -22.825  0.0000E+00  0.1000E+02
    -22.591  0.0000E+00  0.1000E+02
    -22.357  0.0000E+00  0.1000E+02
    -22.123  0.0000E+00  0.1000E+02
    -21.889  0.0000E+00  0.1000E+02
    -21.655  0.0000E+00  0.1000E+02
    -21.421  0.0000E+00  0.1000E+02
    -21.187  0.0000E+00  0.1000E+02
    -20.953  0.0000E+00  0.1000E+02
    -20.719  0.0000E+00  0.1000E+02
    -20.484  0.0000E+00  0.1000E+02
    -20.250  0.0000E+00  0.1000E+02
    -20.016  0.0000E+00  0.1000E+02
    -19.782  0.0000E+00  0.1000E+02
    -19.548  0.0000E+00  0.1000E+02
    -19.314  0.0000E+00  0.1000E+02
    -19.080  0.0000E+00  0.1000E+02
    -18.846  0.0000E+00  0.1000E+02
    -18.612  0.0000E+00  0.1000E+02
    -18.378  0.0000E+00  0.1000E+02
    -18.144  0.0000E+00  0.1000E+02
    -17.910  0.0000E+00  0.1000E+02
    -17.676  0.0000E+00  0.1000E+02
    -17.442  0.0000E+00  0.1000E+02
    -17.208  0.0000E+00  0.1000E+02
    -16.974  0.0000E+00  0.1000E+02
    -16.740  0.0000E+00  0.1000E+02
    -16.506  0.0000E+00  0.1000E+02
    -16.272  0.0000E+00  0.1000E+02
    -16.038  0.0000E+00  0.1000E+02
    -15.804  0.0000E+00  0.1000E+02
    -15.570  0.0000E+00  0.1000E+02
    -15.336  0.0000E+00  0.1000E+02
    -15.102  0.0000E+00  0.1000E+02
    -14.868  0.0000E+00  0.1000E+02
    -14.634  0.0000E+00  0.1000E+02
    -14.399  0.0000E+00  0.1000E+02
    -14.165  0.0000E+00  0.1000E+02
    -13.931  0.0000E+00  0.1000E+02
    -13.697  0.0000E+00  0.1000E+02
    -13.463  0.1798E+01  0.1010E+02
    -13.229  0.2751E+01  0.1093E+02
    -12.995  0.1875E+01  0.1144E+02
    -12.761  0.9695E+00  0.1177E+02
    -12.527  0.4259E+01  0.1201E+02
    -12.293  0.1116E+02  0.1542E+02
    -12.059  0.0000E+00  0.1600E+02
    -11.825  0.0000E+00  0.1600E+02
    -11.591  0.0000E+00  0.1600E+02
    -11.357  0.0000E+00  0.1600E+02
    -11.123  0.2555E+00  0.1600E+02
    -10.889  0.3026E+02  0.1714E+02
    -10.655  0.9771E+01  0.1998E+02
    -10.421  0.2220E+01  0.2195E+02
    -10.187  0.0000E+00  0.2200E+02
     -9.953  0.0000E+00  0.2200E+02
     -9.719  0.0000E+00  0.2200E+02
     -9.485  0.0000E+00  0.2200E+02
     -9.251  0.0000E+00  0.2200E+02
     -9.017  0.0000E+00  0.2200E+02
     -8.783  0.0000E+00  0.2200E+02
     -8.549  0.0000E+00  0.2200E+02
     -8.314  0.0000E+00  0.2200E+02
     -8.080  0.0000E+00  0.2200E+02
     -7.846  0.0000E+00  0.2200E+02
     -7.612  0.0000E+00  0.2200E+02
     -7.378  0.0000E+00  0.2200E+02
     -7.144  0.0000E+00  0.2200E+02
     -6.910  0.0000E+00  0.2200E+02
     -6.676  0.0000E+00  0.2200E+02
     -6.442  0.0000E+00  0.2200E+02
     -6.208  0.0000E+00  0.2200E+02
     -5.974  0.0000E+00  0.2200E+02
     -5.740  0.0000E+00  0.2200E+02
     -5.506  0.0000E+00  0.2200E+02
     -5.272  0.0000E+00  0.2200E+02
     -5.038  0.0000E+00  0.2200E+02
     -4.804  0.0000E+00  0.2200E+02
     -4.570  0.0000E+00  0.2200E+02
     -4.336  0.0000E+00  0.2200E+02
     -4.102  0.0000E+00  0.2200E+02
     -3.868  0.0000E+00  0.2200E+02
     -3.634  0.0000E+00  0.2200E+02
     -3.400  0.0000E+00  0.2200E+02
     -3.166  0.0000E+00  0.2200E+02
     -2.932  0.0000E+00  0.2200E+02
     -2.698  0.0000E+00  0.2200E+02
     -2.463  0.0000E+00  0.2200E+02
     -2.229  0.0000E+00  0.2200E+02
     -1.995  0.0000E+00  0.2200E+02
     -1.761  0.0000E+00  0.2200E+02
     -1.527  0.0000E+00  0.2200E+02
     -1.293  0.0000E+00  0.2200E+02
     -1.059  0.0000E+00  0.2200E+02
     -0.825  0.0000E+00  0.2200E+02
     -0.591  0.3362E-01  0.2200E+02
     -0.357  0.4695E+01  0.2237E+02
     -0.123  0.3620E+01  0.2348E+02
      0.111  0.6431E+01  0.2463E+02
      0.345  0.3696E+01  0.2556E+02
      0.579  0.5161E+01  0.2654E+02
      0.813  0.5648E+01  0.2778E+02
      1.047  0.9364E+01  0.2936E+02
      1.281  0.3114E+01  0.3097E+02
      1.515  0.2495E+01  0.3163E+02
      1.749  0.1907E+01  0.3215E+02
      1.983  0.3215E+01  0.3266E+02
      2.217  0.2782E+01  0.3345E+02
      2.451  0.2073E+01  0.3392E+02
      2.685  0.5946E+01  0.3492E+02
      2.919  0.6638E+01  0.3642E+02
      3.153  0.6095E+01  0.3774E+02
      3.387  0.3335E+01  0.3885E+02
      3.622  0.2071E+01  0.3944E+02
      3.856  0.1064E+01  0.3996E+02
      4.090  0.0000E+00  0.4000E+02
      4.324  0.0000E+00  0.4000E+02
      4.558  0.0000E+00  0.4000E+02
      4.792  0.0000E+00  0.4000E+02
      5.026  0.0000E+00  0.4000E+02
      5.260  0.0000E+00  0.4000E+02
      5.494  0.0000E+00  0.4000E+02
      5.728  0.0000E+00  0.4000E+02
      5.962  0.5477E+00  0.4005E+02
      6.196  0.1485E+01  0.4030E+02
      6.430  0.1330E+01  0.4062E+02
      6.664  0.1662E+01  0.4097E+02
      6.898  0.2430E+01  0.4144E+02
      7.132  0.2745E+01  0.4204E+02
      7.366  0.4066E+01  0.4275E+02
      7.600  0.7046E+01  0.4426E+02
      7.834  0.3186E+01  0.4530E+02
      8.068  0.1567E+01  0.4590E+02
      8.302  0.7664E+00  0.4611E+02
      8.536  0.1035E+01  0.4632E+02
      8.770  0.1101E+01  0.4658E+02
      9.004  0.1400E+01  0.4688E+02
      9.238  0.1047E+01  0.4717E+02
      9.472  0.6023E+00  0.4736E+02
      9.707  0.5127E+00  0.4749E+02
      9.941  0.4435E+00  0.4760E+02
     10.175  0.4339E+00  0.4770E+02
     10.409  0.3779E+00  0.4779E+02
     10.643  0.3107E+00  0.4787E+02
     10.877  0.3480E+00  0.4794E+02
     11.111  0.5348E-01  0.4800E+02
     11.345  0.0000E+00  0.4800E+02
     11.579  0.0000E+00  0.4800E+02
     11.813  0.0000E+00  0.4800E+02
     12.047  0.0000E+00  0.4800E+02
     12.281  0.0000E+00  0.4800E+02
     12.515  0.0000E+00  0.4800E+02
     12.749  0.0000E+00  0.4800E+02
     12.983  0.0000E+00  0.4800E+02
     13.217  0.0000E+00  0.4800E+02
     13.451  0.0000E+00  0.4800E+02
     13.685  0.0000E+00  0.4800E+02
     13.919  0.0000E+00  0.4800E+02
     14.153  0.0000E+00  0.4800E+02
     14.387  0.0000E+00  0.4800E+02
