<?xml version="1.0" encoding="ISO-8859-1"?>
<modeling>
 <generator>
  <i name="program" type="string">vasp </i>
  <i name="version" type="string">5.4.4.18Apr17-6-g9f103f2a35  </i>
  <i name="subversion" type="string">(build Oct 23 2017 21:22:35) complex            parallel </i>
  <i name="platform" type="string">LinuxIFC </i>
  <i name="date" type="string">2017 12 27 </i>
  <i name="time" type="string">07:42:29 </i>
 </generator>
 <incar>
  <i type="string" name="PREC">accurate</i>
  <i type="int" name="IBRION">    -1</i>
  <i name="EDIFF">      0.00001000</i>
  <i name="EDIFFG">     -0.01000000</i>
  <i type="int" name="ISIF">     2</i>
  <i name="ENCUT">    500.00000000</i>
  <i type="int" name="ISMEAR">    -5</i>
  <v type="int" name="KPOINT_BSE">    -1     0     0     0</v>
 </incar>
 <structure name="primitive_cell" >
  <crystal>
   <varray name="basis" >
    <v>       3.94052300       0.00000000       0.00000000 </v>
    <v>       0.00000000       3.94052300       0.00000000 </v>
    <v>       0.00000000       0.00000000       3.94052300 </v>
   </varray>
   <i name="volume">     61.18734376 </i>
   <varray name="rec_basis" >
    <v>       0.25377342       0.00000000       0.00000000 </v>
    <v>       0.00000000       0.25377342       0.00000000 </v>
    <v>       0.00000000       0.00000000       0.25377342 </v>
   </varray>
  </crystal>
  <varray name="positions" >
   <v>       0.00000000      -0.50000000      -0.50000000 </v>
   <v>      -0.50000000      -0.50000000      -0.50000000 </v>
   <v>      -0.50000000       0.00000000      -0.50000000 </v>
   <v>      -0.50000000      -0.50000000       0.00000000 </v>
   <v>       0.00000000       0.00000000       0.00000000 </v>
  </varray>
 </structure>
 <varray name="primitive_index" >
  <v type="int" >        1 </v>
  <v type="int" >        5 </v>
  <v type="int" >        2 </v>
  <v type="int" >        3 </v>
  <v type="int" >        4 </v>
 </varray>
 <kpoints>
  <generation param="Gamma">
   <v type="int" name="divisions">       8        8        8 </v>
   <v name="usershift">      0.00000000       0.00000000       0.00000000 </v>
   <v name="genvec1">      0.12500000       0.00000000       0.00000000 </v>
   <v name="genvec2">      0.00000000       0.12500000       0.00000000 </v>
   <v name="genvec3">      0.00000000       0.00000000       0.12500000 </v>
   <v name="shift">      0.00000000       0.00000000       0.00000000 </v>
  </generation>
  <varray name="kpointlist" >
   <v>       0.00000000       0.00000000       0.00000000 </v>
   <v>       0.12500000       0.00000000       0.00000000 </v>
   <v>       0.25000000       0.00000000       0.00000000 </v>
   <v>       0.37500000       0.00000000       0.00000000 </v>
   <v>       0.50000000       0.00000000       0.00000000 </v>
   <v>       0.12500000       0.12500000       0.00000000 </v>
   <v>       0.25000000       0.12500000       0.00000000 </v>
   <v>       0.37500000       0.12500000       0.00000000 </v>
   <v>       0.50000000       0.12500000       0.00000000 </v>
   <v>       0.25000000       0.25000000       0.00000000 </v>
   <v>       0.37500000       0.25000000       0.00000000 </v>
   <v>       0.50000000       0.25000000       0.00000000 </v>
   <v>       0.37500000       0.37500000       0.00000000 </v>
   <v>       0.50000000       0.37500000       0.00000000 </v>
   <v>       0.50000000       0.50000000       0.00000000 </v>
   <v>       0.12500000       0.12500000       0.12500000 </v>
   <v>       0.25000000       0.12500000       0.12500000 </v>
   <v>       0.37500000       0.12500000       0.12500000 </v>
   <v>       0.50000000       0.12500000       0.12500000 </v>
   <v>       0.25000000       0.25000000       0.12500000 </v>
   <v>       0.37500000       0.25000000       0.12500000 </v>
   <v>       0.50000000       0.25000000       0.12500000 </v>
   <v>       0.37500000       0.37500000       0.12500000 </v>
   <v>       0.50000000       0.37500000       0.12500000 </v>
   <v>       0.50000000       0.50000000       0.12500000 </v>
   <v>       0.25000000       0.25000000       0.25000000 </v>
   <v>       0.37500000       0.25000000       0.25000000 </v>
   <v>       0.50000000       0.25000000       0.25000000 </v>
   <v>       0.37500000       0.37500000       0.25000000 </v>
   <v>       0.50000000       0.37500000       0.25000000 </v>
   <v>       0.50000000       0.50000000       0.25000000 </v>
   <v>       0.37500000       0.37500000       0.37500000 </v>
   <v>       0.50000000       0.37500000       0.37500000 </v>
   <v>       0.50000000       0.50000000       0.37500000 </v>
   <v>       0.50000000       0.50000000       0.50000000 </v>
  </varray>
  <varray name="weights" >
   <v>       0.00195312 </v>
   <v>       0.01171875 </v>
   <v>       0.01171875 </v>
   <v>       0.01171875 </v>
   <v>       0.00585938 </v>
   <v>       0.02343750 </v>
   <v>       0.04687500 </v>
   <v>       0.04687500 </v>
   <v>       0.02343750 </v>
   <v>       0.02343750 </v>
   <v>       0.04687500 </v>
   <v>       0.02343750 </v>
   <v>       0.02343750 </v>
   <v>       0.02343750 </v>
   <v>       0.00585938 </v>
   <v>       0.01562500 </v>
   <v>       0.04687500 </v>
   <v>       0.04687500 </v>
   <v>       0.02343750 </v>
   <v>       0.04687500 </v>
   <v>       0.09375000 </v>
   <v>       0.04687500 </v>
   <v>       0.04687500 </v>
   <v>       0.04687500 </v>
   <v>       0.01171875 </v>
   <v>       0.01562500 </v>
   <v>       0.04687500 </v>
   <v>       0.02343750 </v>
   <v>       0.04687500 </v>
   <v>       0.04687500 </v>
   <v>       0.01171875 </v>
   <v>       0.01562500 </v>
   <v>       0.02343750 </v>
   <v>       0.01171875 </v>
   <v>       0.00195312 </v>
  </varray>
  <varray name="tetrahedronlist"  type="int" >
   <v type="int" >       12        1        2        2        6 </v>
   <v type="int" >       12        2        2        6        6 </v>
   <v type="int" >       12        2        6        6       16 </v>
   <v type="int" >       12        2        3        6        7 </v>
   <v type="int" >       12        2        6        6        7 </v>
   <v type="int" >       12        6        6        7       16 </v>
   <v type="int" >       12        3        6        7        7 </v>
   <v type="int" >       24        6        7        7       17 </v>
   <v type="int" >       24        6        7       16       17 </v>
   <v type="int" >       12        3        4        7        8 </v>
   <v type="int" >       12        3        7        7        8 </v>
   <v type="int" >       12        7        7        8       17 </v>
   <v type="int" >       12        4        7        8        8 </v>
   <v type="int" >       12        7        8        8       18 </v>
   <v type="int" >       12        7        8       17       18 </v>
   <v type="int" >       12        4        5        8        9 </v>
   <v type="int" >       12        4        8        8        9 </v>
   <v type="int" >       12        8        8        9       18 </v>
   <v type="int" >       12        5        8        9        9 </v>
   <v type="int" >       12        8        9        9       19 </v>
   <v type="int" >       12        8        9       18       19 </v>
   <v type="int" >       12        6        7       10       16 </v>
   <v type="int" >       12        7       10       16       17 </v>
   <v type="int" >       12       10       16       17       20 </v>
   <v type="int" >       12        7        8       11       17 </v>
   <v type="int" >       12        7       10       11       17 </v>
   <v type="int" >       12       10       11       17       20 </v>
   <v type="int" >       12        8       11       17       18 </v>
   <v type="int" >       12       11       17       18       21 </v>
   <v type="int" >       12       11       17       20       21 </v>
   <v type="int" >       12        8        9       12       18 </v>
   <v type="int" >       12        8       11       12       18 </v>
   <v type="int" >       12       11       12       18       21 </v>
   <v type="int" >       12        9       12       18       19 </v>
   <v type="int" >       12       12       18       19       22 </v>
   <v type="int" >       12       12       18       21       22 </v>
   <v type="int" >       12        8        9       11       19 </v>
   <v type="int" >       12        9       11       12       19 </v>
   <v type="int" >       12       11       12       19       22 </v>
   <v type="int" >       12        8       11       18       19 </v>
   <v type="int" >       12       11       18       19       21 </v>
   <v type="int" >       12       11       19       21       22 </v>
   <v type="int" >       12        7        8       10       18 </v>
   <v type="int" >       12        8       10       11       18 </v>
   <v type="int" >       12       10       11       18       21 </v>
   <v type="int" >       12        7       10       17       18 </v>
   <v type="int" >       12       10       17       18       20 </v>
   <v type="int" >       12       10       18       20       21 </v>
   <v type="int" >       12        7        7       10       17 </v>
   <v type="int" >       12        7       10       17       20 </v>
   <v type="int" >       12        7       16       17       17 </v>
   <v type="int" >       12        7       17       17       20 </v>
   <v type="int" >       12        2        3        6       16 </v>
   <v type="int" >       12        3        6        7       16 </v>
   <v type="int" >       12        3        7       16       17 </v>
   <v type="int" >       12       10       11       13       20 </v>
   <v type="int" >       12       11       13       20       21 </v>
   <v type="int" >       12       13       20       21       23 </v>
   <v type="int" >       12       11       12       14       21 </v>
   <v type="int" >       12       11       13       14       21 </v>
   <v type="int" >       12       13       14       21       23 </v>
   <v type="int" >       12       12       14       21       22 </v>
   <v type="int" >       12       14       21       22       24 </v>
   <v type="int" >       12       14       21       23       24 </v>
   <v type="int" >       12       11       12       13       22 </v>
   <v type="int" >       12       12       13       14       22 </v>
   <v type="int" >       12       13       14       22       24 </v>
   <v type="int" >       12       11       13       21       22 </v>
   <v type="int" >       12       13       21       22       23 </v>
   <v type="int" >       12       13       22       23       24 </v>
   <v type="int" >       12       10       11       11       21 </v>
   <v type="int" >       12       11       11       13       21 </v>
   <v type="int" >       12       11       13       21       23 </v>
   <v type="int" >       12       10       11       20       21 </v>
   <v type="int" >       12       11       20       21       21 </v>
   <v type="int" >       12       11       21       21       23 </v>
   <v type="int" >       12        7        8       10       20 </v>
   <v type="int" >       12        8       10       11       20 </v>
   <v type="int" >       12        8       11       20       21 </v>
   <v type="int" >       12        7        8       17       20 </v>
   <v type="int" >       12        8       17       18       20 </v>
   <v type="int" >       12        8       18       20       21 </v>
   <v type="int" >       12        3        4        7       17 </v>
   <v type="int" >       12        4        7        8       17 </v>
   <v type="int" >       12        4        8       17       18 </v>
   <v type="int" >       12       13       14       15       23 </v>
   <v type="int" >       12       14       15       23       24 </v>
   <v type="int" >       12       15       23       24       25 </v>
   <v type="int" >       12       13       14       14       24 </v>
   <v type="int" >       12       14       14       15       24 </v>
   <v type="int" >       12       14       15       24       25 </v>
   <v type="int" >       12       13       14       23       24 </v>
   <v type="int" >       12       14       23       24       24 </v>
   <v type="int" >       12       14       24       24       25 </v>
   <v type="int" >       12       11       12       13       23 </v>
   <v type="int" >       12       12       13       14       23 </v>
   <v type="int" >       12       12       14       23       24 </v>
   <v type="int" >       12       11       12       21       23 </v>
   <v type="int" >       12       12       21       22       23 </v>
   <v type="int" >       12       12       22       23       24 </v>
   <v type="int" >       12        8        9       11       21 </v>
   <v type="int" >       12        9       11       12       21 </v>
   <v type="int" >       12        9       12       21       22 </v>
   <v type="int" >       12        8        9       18       21 </v>
   <v type="int" >       12        9       18       19       21 </v>
   <v type="int" >       12        9       19       21       22 </v>
   <v type="int" >       12        4        5        8       18 </v>
   <v type="int" >       12        5        8        9       18 </v>
   <v type="int" >       12        5        9       18       19 </v>
   <v type="int" >       12       13       14       15       25 </v>
   <v type="int" >       12       13       14       24       25 </v>
   <v type="int" >       12       13       23       24       25 </v>
   <v type="int" >       12       11       12       14       24 </v>
   <v type="int" >       12       11       13       14       24 </v>
   <v type="int" >       12       11       13       23       24 </v>
   <v type="int" >       12       11       12       22       24 </v>
   <v type="int" >       12       11       21       22       24 </v>
   <v type="int" >       12       11       21       23       24 </v>
   <v type="int" >       12        8        9       12       22 </v>
   <v type="int" >       12        8       11       12       22 </v>
   <v type="int" >       12        8       11       21       22 </v>
   <v type="int" >       12        8        9       19       22 </v>
   <v type="int" >       12        8       18       19       22 </v>
   <v type="int" >       12        8       18       21       22 </v>
   <v type="int" >       12        4        5        9       19 </v>
   <v type="int" >       12        4        8        9       19 </v>
   <v type="int" >       12        4        8       18       19 </v>
   <v type="int" >       12       10       11       13       23 </v>
   <v type="int" >       12       10       11       21       23 </v>
   <v type="int" >       12       10       20       21       23 </v>
   <v type="int" >       12        7        8       11       21 </v>
   <v type="int" >       12        7       10       11       21 </v>
   <v type="int" >       12        7       10       20       21 </v>
   <v type="int" >       12        7        8       18       21 </v>
   <v type="int" >       12        7       17       18       21 </v>
   <v type="int" >       12        7       17       20       21 </v>
   <v type="int" >       12        3        4        8       18 </v>
   <v type="int" >       12        3        7        8       18 </v>
   <v type="int" >       12        3        7       17       18 </v>
   <v type="int" >       12        6        7       10       20 </v>
   <v type="int" >       12        6        7       17       20 </v>
   <v type="int" >       12        6       16       17       20 </v>
   <v type="int" >       12        2        3        7       17 </v>
   <v type="int" >       12        2        6        7       17 </v>
   <v type="int" >       12        2        6       16       17 </v>
   <v type="int" >       12        1        2        6       16 </v>
   <v type="int" >       12       16       17       17       20 </v>
   <v type="int" >       12       17       17       20       20 </v>
   <v type="int" >       12       17       20       20       26 </v>
   <v type="int" >       12       17       18       20       21 </v>
   <v type="int" >       12       17       20       20       21 </v>
   <v type="int" >       12       20       20       21       26 </v>
   <v type="int" >       12       18       20       21       21 </v>
   <v type="int" >       24       20       21       21       27 </v>
   <v type="int" >       24       20       21       26       27 </v>
   <v type="int" >       12       18       19       21       22 </v>
   <v type="int" >       12       18       21       21       22 </v>
   <v type="int" >       12       21       21       22       27 </v>
   <v type="int" >       12       19       21       22       22 </v>
   <v type="int" >       12       21       22       22       28 </v>
   <v type="int" >       12       21       22       27       28 </v>
   <v type="int" >       12       20       21       23       26 </v>
   <v type="int" >       12       21       23       26       27 </v>
   <v type="int" >       12       23       26       27       29 </v>
   <v type="int" >       12       21       22       24       27 </v>
   <v type="int" >       12       21       23       24       27 </v>
   <v type="int" >       12       23       24       27       29 </v>
   <v type="int" >       12       22       24       27       28 </v>
   <v type="int" >       12       24       27       28       30 </v>
   <v type="int" >       12       24       27       29       30 </v>
   <v type="int" >       12       21       22       23       28 </v>
   <v type="int" >       12       22       23       24       28 </v>
   <v type="int" >       12       23       24       28       30 </v>
   <v type="int" >       12       21       23       27       28 </v>
   <v type="int" >       12       23       27       28       29 </v>
   <v type="int" >       12       23       28       29       30 </v>
   <v type="int" >       12       21       21       23       27 </v>
   <v type="int" >       12       21       23       27       29 </v>
   <v type="int" >       12       21       26       27       27 </v>
   <v type="int" >       12       21       27       27       29 </v>
   <v type="int" >       12       17       18       20       26 </v>
   <v type="int" >       12       18       20       21       26 </v>
   <v type="int" >       12       18       21       26       27 </v>
   <v type="int" >       12       23       24       25       29 </v>
   <v type="int" >       12       24       25       29       30 </v>
   <v type="int" >       12       25       29       30       31 </v>
   <v type="int" >       12       23       24       24       30 </v>
   <v type="int" >       12       24       24       25       30 </v>
   <v type="int" >       12       24       25       30       31 </v>
   <v type="int" >       12       23       24       29       30 </v>
   <v type="int" >       12       24       29       30       30 </v>
   <v type="int" >       12       24       30       30       31 </v>
   <v type="int" >       12       21       22       23       29 </v>
   <v type="int" >       12       22       23       24       29 </v>
   <v type="int" >       12       22       24       29       30 </v>
   <v type="int" >       12       21       22       27       29 </v>
   <v type="int" >       12       22       27       28       29 </v>
   <v type="int" >       12       22       28       29       30 </v>
   <v type="int" >       12       18       19       21       27 </v>
   <v type="int" >       12       19       21       22       27 </v>
   <v type="int" >       12       19       22       27       28 </v>
   <v type="int" >       12       23       24       25       31 </v>
   <v type="int" >       12       23       24       30       31 </v>
   <v type="int" >       12       23       29       30       31 </v>
   <v type="int" >       12       21       22       24       30 </v>
   <v type="int" >       12       21       23       24       30 </v>
   <v type="int" >       12       21       23       29       30 </v>
   <v type="int" >       12       21       22       28       30 </v>
   <v type="int" >       12       21       27       28       30 </v>
   <v type="int" >       12       21       27       29       30 </v>
   <v type="int" >       12       18       19       22       28 </v>
   <v type="int" >       12       18       21       22       28 </v>
   <v type="int" >       12       18       21       27       28 </v>
   <v type="int" >       12       20       21       23       29 </v>
   <v type="int" >       12       20       21       27       29 </v>
   <v type="int" >       12       20       26       27       29 </v>
   <v type="int" >       12       17       18       21       27 </v>
   <v type="int" >       12       17       20       21       27 </v>
   <v type="int" >       12       17       20       26       27 </v>
   <v type="int" >       12       16       17       20       26 </v>
   <v type="int" >       12       26       27       27       29 </v>
   <v type="int" >       12       27       27       29       29 </v>
   <v type="int" >       12       27       29       29       32 </v>
   <v type="int" >       12       27       28       29       30 </v>
   <v type="int" >       12       27       29       29       30 </v>
   <v type="int" >       12       29       29       30       32 </v>
   <v type="int" >       12       28       29       30       30 </v>
   <v type="int" >       24       29       30       30       33 </v>
   <v type="int" >       24       29       30       32       33 </v>
   <v type="int" >       12       29       30       31       32 </v>
   <v type="int" >       12       30       31       32       33 </v>
   <v type="int" >       12       31       32       33       34 </v>
   <v type="int" >       12       30       30       31       33 </v>
   <v type="int" >       12       30       31       33       34 </v>
   <v type="int" >       12       30       32       33       33 </v>
   <v type="int" >       12       30       33       33       34 </v>
   <v type="int" >       12       27       28       29       32 </v>
   <v type="int" >       12       28       29       30       32 </v>
   <v type="int" >       12       28       30       32       33 </v>
   <v type="int" >       12       29       30       31       34 </v>
   <v type="int" >       12       29       30       33       34 </v>
   <v type="int" >       12       29       32       33       34 </v>
   <v type="int" >       12       27       28       30       33 </v>
   <v type="int" >       12       27       29       30       33 </v>
   <v type="int" >       12       27       29       32       33 </v>
   <v type="int" >       12       26       27       29       32 </v>
   <v type="int" >       12       32       33       33       34 </v>
   <v type="int" >       12       33       33       34       34 </v>
   <v type="int" >       12       33       34       34       35 </v>
   <v type="int" >       12       32       33       34       35 </v>
  </varray>
  <i name="volumeweight">      0.00032552 </i>
 </kpoints>
 <parameters>
  <separator name="general" >
   <i type="string" name="SYSTEM">unknown system</i>
   <i type="logical" name="LCOMPAT"> F  </i>
  </separator>
  <separator name="electronic" >
   <i type="string" name="PREC">accura</i>
   <i name="ENMAX">    500.00000000</i>
   <i name="ENAUG">    605.39200000</i>
   <i name="EDIFF">      0.00001000</i>
   <i type="int" name="IALGO">    38</i>
   <i type="int" name="IWAVPR">    10</i>
   <i type="int" name="NBANDS">    24</i>
   <i name="NELECT">     40.00000000</i>
   <i type="int" name="TURBO">     0</i>
   <i type="int" name="IRESTART">     0</i>
   <i type="int" name="NREBOOT">     0</i>
   <i type="int" name="NMIN">     0</i>
   <i name="EREF">      0.00000000</i>
   <separator name="electronic smearing" >
    <i type="int" name="ISMEAR">    -5</i>
    <i name="SIGMA">      0.20000000</i>
    <i name="KSPACING">      0.50000000</i>
    <i type="logical" name="KGAMMA"> T  </i>
   </separator>
   <separator name="electronic projectors" >
    <i type="logical" name="LREAL"> F  </i>
    <v name="ROPT">      0.00000000      0.00000000      0.00000000</v>
    <i type="int" name="LMAXPAW">  -100</i>
    <i type="int" name="LMAXMIX">     2</i>
    <i type="logical" name="NLSPLINE"> F  </i>
   </separator>
   <separator name="electronic startup" >
    <i type="int" name="ISTART">     1</i>
    <i type="int" name="ICHARG">     0</i>
    <i type="int" name="INIWAV">     1</i>
   </separator>
   <separator name="electronic spin" >
    <i type="int" name="ISPIN">     1</i>
    <i type="logical" name="LNONCOLLINEAR"> F  </i>
    <v name="MAGMOM">      1.00000000      1.00000000      1.00000000      1.00000000      1.00000000</v>
    <i name="NUPDOWN">     -1.00000000</i>
    <i type="logical" name="LSORBIT"> F  </i>
    <v name="SAXIS">      0.00000000      0.00000000      1.00000000</v>
    <i type="logical" name="LSPIRAL"> F  </i>
    <v name="QSPIRAL">      0.00000000      0.00000000      0.00000000</v>
    <i type="logical" name="LZEROZ"> F  </i>
   </separator>
   <separator name="electronic exchange-correlation" >
    <i type="logical" name="LASPH"> F  </i>
    <i type="logical" name="LMETAGGA"> F  </i>
   </separator>
   <separator name="electronic convergence" >
    <i type="int" name="NELM">    60</i>
    <i type="int" name="NELMDL">     0</i>
    <i type="int" name="NELMIN">     2</i>
    <i name="ENINI">    500.00000000</i>
    <separator name="electronic convergence detail" >
     <i type="logical" name="LDIAG"> T  </i>
     <i type="logical" name="LSUBROT"> F  </i>
     <i name="WEIMIN">      0.00000000</i>
     <i name="EBREAK">      0.00000010</i>
     <i name="DEPER">      0.30000000</i>
     <i type="int" name="NRMM">     4</i>
     <i name="TIME">      0.40000000</i>
    </separator>
   </separator>
   <separator name="electronic mixer" >
    <i name="AMIX">      0.40000000</i>
    <i name="BMIX">      1.00000000</i>
    <i name="AMIN">      0.10000000</i>
    <i name="AMIX_MAG">      1.60000000</i>
    <i name="BMIX_MAG">      1.00000000</i>
    <separator name="electronic mixer details" >
     <i type="int" name="IMIX">     4</i>
     <i type="logical" name="MIXFIRST"> F  </i>
     <i type="int" name="MAXMIX">   -45</i>
     <i name="WC">    100.00000000</i>
     <i type="int" name="INIMIX">     1</i>
     <i type="int" name="MIXPRE">     1</i>
     <i type="int" name="MREMOVE">     5</i>
    </separator>
   </separator>
   <separator name="electronic dipolcorrection" >
    <i type="logical" name="LDIPOL"> F  </i>
    <i type="logical" name="LMONO"> F  </i>
    <i type="int" name="IDIPOL">     0</i>
    <i name="EPSILON">      1.00000000</i>
    <v name="DIPOL">   -100.00000000   -100.00000000   -100.00000000</v>
    <i name="EFIELD">      0.00000000</i>
   </separator>
  </separator>
  <separator name="grids" >
   <i type="int" name="NGX">    30</i>
   <i type="int" name="NGY">    30</i>
   <i type="int" name="NGZ">    30</i>
   <i type="int" name="NGXF">    60</i>
   <i type="int" name="NGYF">    60</i>
   <i type="int" name="NGZF">    60</i>
   <i type="logical" name="ADDGRID"> F  </i>
  </separator>
  <separator name="ionic" >
   <i type="int" name="NSW">     0</i>
   <i type="int" name="IBRION">    -1</i>
   <i type="int" name="MDALGO">     0</i>
   <i type="int" name="ISIF">     2</i>
   <i name="PSTRESS">      0.00000000</i>
   <i name="EDIFFG">     -0.01000000</i>
   <i type="int" name="NFREE">     0</i>
   <i name="POTIM">      0.50000000</i>
   <i name="SMASS">     -3.00000000</i>
   <i name="SCALEE">      1.00000000</i>
  </separator>
  <separator name="ionic md" >
   <i name="TEBEG">      0.00010000</i>
   <i name="TEEND">      0.00010000</i>
   <i type="int" name="NBLOCK">     1</i>
   <i type="int" name="KBLOCK">     1</i>
   <i type="int" name="NPACO">   256</i>
   <i name="APACO">     16.00000000</i>
  </separator>
  <separator name="symmetry" >
   <i type="int" name="ISYM">     2</i>
   <i name="SYMPREC">      0.00001000</i>
  </separator>
  <separator name="dos" >
   <i type="int" name="LORBIT">     0</i>
   <v name="RWIGS">     -1.00000000     -1.00000000     -1.00000000</v>
   <i type="int" name="NEDOS">   301</i>
   <i name="EMIN">     10.00000000</i>
   <i name="EMAX">    -10.00000000</i>
   <i name="EFERMI">      0.00000000</i>
  </separator>
  <separator name="writing" >
   <i type="int" name="NWRITE">     2</i>
   <i type="logical" name="LWAVE"> T  </i>
   <i type="logical" name="LDOWNSAMPLE"> F  </i>
   <i type="logical" name="LCHARG"> T  </i>
   <i type="logical" name="LPARD"> F  </i>
   <i type="logical" name="LVTOT"> F  </i>
   <i type="logical" name="LVHAR"> F  </i>
   <i type="logical" name="LELF"> F  </i>
   <i type="logical" name="LOPTICS"> F  </i>
   <v name="STM">      0.00000000      0.00000000      0.00000000      0.00000000      0.00000000      0.00000000      0.00000000</v>
  </separator>
  <separator name="performance" >
   <i type="int" name="NPAR">     4</i>
   <i type="int" name="NSIM">     4</i>
   <i type="int" name="NBLK">    -1</i>
   <i type="logical" name="LPLANE"> T  </i>
   <i type="logical" name="LSCALAPACK"> T  </i>
   <i type="logical" name="LSCAAWARE"> F  </i>
   <i type="logical" name="LSCALU"> F  </i>
   <i type="logical" name="LASYNC"> F  </i>
   <i type="logical" name="LORBITALREAL"> F  </i>
  </separator>
  <separator name="miscellaneous" >
   <i type="int" name="IDIOT">     3</i>
   <i type="int" name="ISPECIAL">     0</i>
   <i type="logical" name="LMUSIC"> F  </i>
   <v name="POMASS">     16.00000000     87.62000000     47.88000000</v>
   <v name="DARWINR">      0.00000000      0.00000000      0.00000000</v>
   <v name="DARWINV">      1.00000000      1.00000000      1.00000000</v>
   <i type="logical" name="LCORR"> T  </i>
  </separator>
  <i type="logical" name="GGA_COMPAT"> T  </i>
  <i type="logical" name="LBERRY"> F  </i>
  <i type="int" name="ICORELEVEL">     0</i>
  <i type="logical" name="LDAU"> F  </i>
  <i type="int" name="I_CONSTRAINED_M">     0</i>
  <separator name="electronic exchange-correlation" >
   <i type="string" name="GGA">--</i>
   <i type="int" name="VOSKOWN">     0</i>
   <i type="logical" name="LHFCALC"> F  </i>
   <i type="string" name="PRECFOCK"></i>
   <i type="logical" name="LSYMGRAD"> F  </i>
   <i type="logical" name="LHFONE"> F  </i>
   <i type="logical" name="LRHFCALC"> F  </i>
   <i type="logical" name="LTHOMAS"> F  </i>
   <i type="logical" name="LMODELHF"> F  </i>
   <i name="ENCUT4O">     -1.00000000</i>
   <i type="int" name="EXXOEP">     0</i>
   <i type="int" name="FOURORBIT">     0</i>
   <i name="AEXX">      0.00000000</i>
   <i name="HFALPHA">      0.00000000</i>
   <i name="MCALPHA">      0.00000000</i>
   <i name="ALDAX">      1.00000000</i>
   <i name="AGGAX">      1.00000000</i>
   <i name="ALDAC">      1.00000000</i>
   <i name="AGGAC">      1.00000000</i>
   <i type="int" name="NKREDX">     1</i>
   <i type="int" name="NKREDY">     1</i>
   <i type="int" name="NKREDZ">     1</i>
   <i type="logical" name="SHIFTRED"> F  </i>
   <i type="logical" name="ODDONLY"> F  </i>
   <i type="logical" name="EVENONLY"> F  </i>
   <i type="int" name="LMAXFOCK">     0</i>
   <i type="int" name="NMAXFOCKAE">     0</i>
   <i type="logical" name="LFOCKAEDFT"> F  </i>
   <i name="HFSCREEN">      0.00000000</i>
   <i name="HFSCREENC">      0.00000000</i>
   <i type="int" name="NBANDSGWLOW">     0</i>
  </separator>
  <separator name="vdW DFT" >
   <i type="logical" name="LUSE_VDW"> F  </i>
   <i name="Zab_VDW">     -0.84910000</i>
   <i name="PARAM1">      0.12340000</i>
   <i name="PARAM2">      1.00000000</i>
   <i name="PARAM3">      0.00000000</i>
  </separator>
  <separator name="model GW" >
   <i type="int" name="MODEL_GW">     0</i>
   <i name="MODEL_EPS0">      7.34248125</i>
   <i name="MODEL_ALPHA">      1.00000000</i>
  </separator>
  <separator name="linear response parameters" >
   <i type="logical" name="LEPSILON"> F  </i>
   <i type="logical" name="LRPA"> F  </i>
   <i type="logical" name="LNABLA"> F  </i>
   <i type="logical" name="LVEL"> F  </i>
   <i type="int" name="KINTER">     0</i>
   <i name="CSHIFT">      0.10000000</i>
   <i name="OMEGAMAX">     -1.00000000</i>
   <i name="DEG_THRESHOLD">      0.00200000</i>
   <i name="RTIME">     -0.10000000</i>
   <i name="WPLASMAI">      0.00000000</i>
   <v name="DFIELD">      0.00000000      0.00000000      0.00000000</v>
   <v name="WPLASMA">      0.00000000      0.00000000      0.00000000      0.00000000      0.00000000      0.00000000      0.00000000      0.00000000      0.00000000</v>
  </separator>
  <separator name="orbital magnetization" >
   <i type="logical" name="NUCIND"> F  </i>
   <v name="MAGPOS">      0.00000000      0.00000000      0.00000000</v>
   <i type="logical" name="LNICSALL"> T  </i>
   <i type="logical" name="ORBITALMAG"> F  </i>
   <i type="logical" name="LMAGBLOCH"> F  </i>
   <i type="logical" name="LCHIMAG"> F  </i>
   <i type="logical" name="LGAUGE"> T  </i>
   <i type="int" name="MAGATOM">     0</i>
   <v name="MAGDIPOL">      0.00000000      0.00000000      0.00000000</v>
   <v name="AVECCONST">      0.00000000      0.00000000      0.00000000</v>
  </separator>
  <separator name="response functions" >
   <i type="logical" name="LADDER"> F  </i>
   <i type="logical" name="LRPAFORCE"> F  </i>
   <i type="logical" name="LFXC"> F  </i>
   <i type="logical" name="LHARTREE"> T  </i>
   <i type="int" name="IBSE">     0</i>
   <v type="int" name="KPOINT">    -1     0     0     0</v>
   <i type="logical" name="LTCTE"> F  </i>
   <i type="logical" name="LTETE"> F  </i>
   <i type="logical" name="LTRIPLET"> F  </i>
   <i type="logical" name="LFXCEPS"> F  </i>
   <i type="logical" name="LFXHEG"> F  </i>
   <i type="int" name="NATURALO">     2</i>
   <i type="logical" name="L2ORDER"> F  </i>
   <i type="logical" name="LMP2LT"> F  </i>
   <i type="logical" name="LUSEW"> F  </i>
   <i name="ENCUTGW">     -2.00000000</i>
   <i name="ENCUTGWSOFT">     -2.00000000</i>
   <i name="ENCUTLF">     -1.00000000</i>
   <i type="int" name="LMAXMP2">    -1</i>
   <i name="SCISSOR">      0.00000000</i>
   <i type="int" name="NOMEGA">     0</i>
   <i type="int" name="NOMEGAR">     0</i>
   <i type="int" name="NBANDSGW">    -1</i>
   <i type="int" name="NBANDSO">    -1</i>
   <i type="int" name="NBANDSV">    -1</i>
   <i type="int" name="NELM">     1</i>
   <i type="int" name="NELMHF">     1</i>
   <i type="int" name="DIM">     3</i>
   <i type="int" name="ANTIRES">     0</i>
   <i name="OMEGAMAX">    -30.00000000</i>
   <i name="OMEGAMIN">    -30.00000000</i>
   <i name="OMEGATL">   -200.00000000</i>
   <i type="int" name="OMEGAGRID">   140</i>
   <i name="CSHIFT">     -0.10000000</i>
   <i type="logical" name="SELFENERGY"> F  </i>
   <i type="logical" name="LSPECTRAL"> F  </i>
   <i type="logical" name="LSPECTRALGW"> F  </i>
   <i type="logical" name="LSINGLES"> F  </i>
   <i type="logical" name="LFERMIGW"> F  </i>
   <i type="logical" name="ODDONLYGW"> F  </i>
   <i type="logical" name="EVENONLYGW"> F  </i>
   <i type="int" name="NKREDLFX">     1</i>
   <i type="int" name="NKREDLFY">     1</i>
   <i type="int" name="NKREDLFZ">     1</i>
   <i type="int" name="MAXMEM">  2800</i>
   <i type="int" name="TELESCOPE">     0</i>
   <i type="int" name="TAUPAR">     1</i>
   <i type="int" name="OMEGAPAR">    -1</i>
   <i name="LAMBDA">      1.00000000</i>
  </separator>
  <separator name="External order field" >
   <i name="OFIELD_KAPPA">      0.00000000</i>
   <v name="OFIELD_K">      0.00000000      0.00000000      0.00000000</v>
   <i name="OFIELD_Q6_NEAR">      0.00000000</i>
   <i name="OFIELD_Q6_FAR">      0.00000000</i>
   <i name="OFIELD_A">      0.00000000</i>
  </separator>
 </parameters>
 <atominfo>
  <atoms>       5 </atoms>
  <types>       3 </types>
  <array name="atoms" >
   <dimension dim="1">ion</dimension>
   <field type="string">element</field>
   <field type="int">atomtype</field>
   <set>
    <rc><c>O </c><c>   1</c></rc>
    <rc><c>O </c><c>   1</c></rc>
    <rc><c>O </c><c>   1</c></rc>
    <rc><c>Sr</c><c>   2</c></rc>
    <rc><c>Ti</c><c>   3</c></rc>
   </set>
  </array>
  <array name="atomtypes" >
   <dimension dim="1">type</dimension>
   <field type="int">atomspertype</field>
   <field type="string">element</field>
   <field>mass</field>
   <field>valence</field>
   <field type="string">pseudopotential</field>
   <set>
    <rc><c>   3</c><c>O </c><c>     16.00000000</c><c>      6.00000000</c><c>  PAW_PBE O 08Apr2002                   </c></rc>
    <rc><c>   1</c><c>Sr</c><c>     87.62000000</c><c>     10.00000000</c><c>  PAW_PBE Sr_sv 07Sep2000               </c></rc>
    <rc><c>   1</c><c>Ti</c><c>     47.88000000</c><c>     12.00000000</c><c>  PAW_PBE Ti_sv 26Sep2005               </c></rc>
   </set>
  </array>
 </atominfo>
 <structure name="initialpos" >
  <crystal>
   <varray name="basis" >
    <v>       3.94052300       0.00000000       0.00000000 </v>
    <v>       0.00000000       3.94052300       0.00000000 </v>
    <v>       0.00000000       0.00000000       3.94052300 </v>
   </varray>
   <i name="volume">     61.18734376 </i>
   <varray name="rec_basis" >
    <v>       0.25377342       0.00000000       0.00000000 </v>
    <v>       0.00000000       0.25377342       0.00000000 </v>
    <v>       0.00000000       0.00000000       0.25377342 </v>
   </varray>
  </crystal>
  <varray name="positions" >
   <v>       0.00000000       0.50000000       0.50000000 </v>
   <v>       0.50000000       0.00000000       0.50000000 </v>
   <v>       0.50000000       0.50000000       0.00000000 </v>
   <v>       0.00000000       0.00000000       0.00000000 </v>
   <v>       0.50000000       0.50000000       0.50000000 </v>
  </varray>
 </structure>
 <calculation>
  <scstep>
   <time name="dav">    0.37    0.37</time>
   <time name="total">    0.41    0.42</time>
   <energy>
    <i name="alphaZ">    222.13742196 </i>
    <i name="ewald">  -2865.26601643 </i>
    <i name="hartreedc">   -885.38263259 </i>
    <i name="XCdc">    182.66591614 </i>
    <i name="pawpsdc">   4747.11136061 </i>
    <i name="pawaedc">  -4721.40649063 </i>
    <i name="eentropy">      0.00000000 </i>
    <i name="bandstr">   -448.14756633 </i>
    <i name="atom">   3728.18459327 </i>
    <i name="e_fr_energy">    -40.10341400 </i>
    <i name="e_wo_entrp">    -40.10341400 </i>
    <i name="e_0_energy">    -40.10341400 </i>
   </energy>
  </scstep>
  <scstep>
   <time name="dav">    0.34    0.34</time>
   <time name="total">    0.36    0.36</time>
   <energy>
    <i name="alphaZ">    222.13742196 </i>
    <i name="ewald">  -2865.26601643 </i>
    <i name="hartreedc">   -885.37068674 </i>
    <i name="XCdc">    182.66652116 </i>
    <i name="pawpsdc">   4747.14634264 </i>
    <i name="pawaedc">  -4721.44325042 </i>
    <i name="eentropy">      0.00000000 </i>
    <i name="bandstr">   -448.15833703 </i>
    <i name="atom">   3728.18459327 </i>
    <i name="e_fr_energy">    -40.10341160 </i>
    <i name="e_wo_entrp">    -40.10341160 </i>
    <i name="e_0_energy">    -40.10341160 </i>
   </energy>
  </scstep>
  <structure>
   <crystal>
    <varray name="basis" >
     <v>       3.94052300       0.00000000       0.00000000 </v>
     <v>       0.00000000       3.94052300       0.00000000 </v>
     <v>       0.00000000       0.00000000       3.94052300 </v>
    </varray>
    <i name="volume">     61.18734376 </i>
    <varray name="rec_basis" >
     <v>       0.25377342       0.00000000       0.00000000 </v>
     <v>       0.00000000       0.25377342       0.00000000 </v>
     <v>       0.00000000       0.00000000       0.25377342 </v>
    </varray>
   </crystal>
   <varray name="positions" >
    <v>       0.00000000       0.50000000       0.50000000 </v>
    <v>       0.50000000       0.00000000       0.50000000 </v>
    <v>       0.50000000       0.50000000       0.00000000 </v>
    <v>       0.00000000       0.00000000       0.00000000 </v>
    <v>       0.50000000       0.50000000       0.50000000 </v>
   </varray>
  </structure>
  <varray name="forces" >
   <v>       0.00000000       0.00000000       0.00000000 </v>
   <v>       0.00000000       0.00000000       0.00000000 </v>
   <v>       0.00000000       0.00000000       0.00000000 </v>
   <v>       0.00000000       0.00000000       0.00000000 </v>
   <v>       0.00000000       0.00000000       0.00000000 </v>
  </varray>
  <varray name="stress" >
   <v>       0.03014517      -0.00000000       0.00000000 </v>
   <v>       0.00000000       0.03014517      -0.00000000 </v>
   <v>       0.00000000       0.00000000       0.03014517 </v>
  </varray>
  <energy>
   <i name="e_fr_energy">    -40.10341160 </i>
   <i name="e_wo_entrp">    -40.10341160 </i>
   <i name="e_0_energy">      0.00000000 </i>
  </energy>
  <time name="totalsc">    1.19    1.51</time>
  <eigenvalues>
   <array>
    <dimension dim="1">band</dimension>
    <dimension dim="2">kpoint</dimension>
    <dimension dim="3">spin</dimension>
    <field>eigene</field>
    <field>occ</field>
    <set>
     <set comment="spin 1">
      <set comment="kpoint 1">
       <r>  -52.6329    1.0000 </r>
       <r>  -28.9291    1.0000 </r>
       <r>  -28.8618    1.0000 </r>
       <r>  -28.8618    1.0000 </r>
       <r>  -28.8618    1.0000 </r>
       <r>  -13.3830    1.0000 </r>
       <r>  -12.4232    1.0000 </r>
       <r>  -12.4232    1.0000 </r>
       <r>  -10.9117    1.0000 </r>
       <r>  -10.9117    1.0000 </r>
       <r>  -10.9117    1.0000 </r>
       <r>    1.1444    1.0000 </r>
       <r>    1.1444    1.0000 </r>
       <r>    1.1444    1.0000 </r>
       <r>    2.8213    1.0000 </r>
       <r>    2.8213    1.0000 </r>
       <r>    2.8213    1.0000 </r>
       <r>    3.5755    1.0000 </r>
       <r>    3.5755    1.0000 </r>
       <r>    3.5755    1.0000 </r>
       <r>    5.7471    0.0000 </r>
       <r>    5.7471    0.0000 </r>
       <r>    5.7471    0.0000 </r>
       <r>    8.0623    0.0000 </r>
      </set>
      <set comment="kpoint 2">
       <r>  -52.6327    1.0000 </r>
       <r>  -28.9461    1.0000 </r>
       <r>  -28.8614    1.0000 </r>
       <r>  -28.8614    1.0000 </r>
       <r>  -28.8510    1.0000 </r>
       <r>  -13.3888    1.0000 </r>
       <r>  -12.4330    1.0000 </r>
       <r>  -12.4178    1.0000 </r>
       <r>  -10.9056    1.0000 </r>
       <r>  -10.9056    1.0000 </r>
       <r>  -10.8100    1.0000 </r>
       <r>    0.9469    1.0000 </r>
       <r>    1.1371    1.0000 </r>
       <r>    1.1371    1.0000 </r>
       <r>    2.6237    1.0000 </r>
       <r>    2.6237    1.0000 </r>
       <r>    2.6894    1.0000 </r>
       <r>    3.1159    1.0000 </r>
       <r>    3.4804    1.0000 </r>
       <r>    3.4804    1.0000 </r>
       <r>    5.7693    0.0000 </r>
       <r>    6.0830    0.0000 </r>
       <r>    6.0830    0.0000 </r>
       <r>    8.0645    0.0000 </r>
      </set>
      <set comment="kpoint 3">
       <r>  -52.6323    1.0000 </r>
       <r>  -28.9784    1.0000 </r>
       <r>  -28.8605    1.0000 </r>
       <r>  -28.8605    1.0000 </r>
       <r>  -28.8334    1.0000 </r>
       <r>  -13.4479    1.0000 </r>
       <r>  -12.4048    1.0000 </r>
       <r>  -12.3689    1.0000 </r>
       <r>  -10.8908    1.0000 </r>
       <r>  -10.8908    1.0000 </r>
       <r>  -10.5994    1.0000 </r>
       <r>    0.4533    1.0000 </r>
       <r>    1.1262    1.0000 </r>
       <r>    1.1262    1.0000 </r>
       <r>    2.1973    1.0000 </r>
       <r>    2.1973    1.0000 </r>
       <r>    2.3005    1.0000 </r>
       <r>    2.3999    1.0000 </r>
       <r>    3.3424    1.0000 </r>
       <r>    3.3424    1.0000 </r>
       <r>    5.8239    0.0000 </r>
       <r>    6.7601    0.0000 </r>
       <r>    6.7601    0.0000 </r>
       <r>    8.0685    0.0000 </r>
      </set>
      <set comment="kpoint 4">
       <r>  -52.6318    1.0000 </r>
       <r>  -29.0062    1.0000 </r>
       <r>  -28.8596    1.0000 </r>
       <r>  -28.8596    1.0000 </r>
       <r>  -28.8201    1.0000 </r>
       <r>  -13.5451    1.0000 </r>
       <r>  -12.3915    1.0000 </r>
       <r>  -12.2220    1.0000 </r>
       <r>  -10.8758    1.0000 </r>
       <r>  -10.8758    1.0000 </r>
       <r>  -10.4223    1.0000 </r>
       <r>   -0.0681    1.0000 </r>
       <r>    1.1351    1.0000 </r>
       <r>    1.1351    1.0000 </r>
       <r>    1.7170    1.0000 </r>
       <r>    1.8179    1.0000 </r>
       <r>    1.8179    1.0000 </r>
       <r>    2.1418    1.0000 </r>
       <r>    3.2467    1.0000 </r>
       <r>    3.2467    1.0000 </r>
       <r>    5.8803    0.0000 </r>
       <r>    7.3507    0.0000 </r>
       <r>    7.3507    0.0000 </r>
       <r>    8.0717    0.0000 </r>
      </set>
      <set comment="kpoint 5">
       <r>  -52.6316    1.0000 </r>
       <r>  -29.0170    1.0000 </r>
       <r>  -28.8593    1.0000 </r>
       <r>  -28.8593    1.0000 </r>
       <r>  -28.8153    1.0000 </r>
       <r>  -13.5903    1.0000 </r>
       <r>  -12.3863    1.0000 </r>
       <r>  -12.1454    1.0000 </r>
       <r>  -10.8696    1.0000 </r>
       <r>  -10.8696    1.0000 </r>
       <r>  -10.3565    1.0000 </r>
       <r>   -0.2908    1.0000 </r>
       <r>    1.1532    1.0000 </r>
       <r>    1.1532    1.0000 </r>
       <r>    1.5182    1.0000 </r>
       <r>    1.6603    1.0000 </r>
       <r>    1.6603    1.0000 </r>
       <r>    2.0422    1.0000 </r>
       <r>    3.2126    1.0000 </r>
       <r>    3.2126    1.0000 </r>
       <r>    5.9042    0.0000 </r>
       <r>    7.5830    0.0000 </r>
       <r>    7.5830    0.0000 </r>
       <r>    8.0729    0.0000 </r>
      </set>
      <set comment="kpoint 6">
       <r>  -52.6325    1.0000 </r>
       <r>  -28.9539    1.0000 </r>
       <r>  -28.8707    1.0000 </r>
       <r>  -28.8610    1.0000 </r>
       <r>  -28.8398    1.0000 </r>
       <r>  -13.3781    1.0000 </r>
       <r>  -12.4531    1.0000 </r>
       <r>  -12.4106    1.0000 </r>
       <r>  -10.8993    1.0000 </r>
       <r>  -10.8492    1.0000 </r>
       <r>  -10.7725    1.0000 </r>
       <r>    0.8217    1.0000 </r>
       <r>    1.0561    1.0000 </r>
       <r>    1.1309    1.0000 </r>
       <r>    2.2056    1.0000 </r>
       <r>    2.4663    1.0000 </r>
       <r>    2.8278    1.0000 </r>
       <r>    2.9578    1.0000 </r>
       <r>    3.2316    1.0000 </r>
       <r>    3.3518    1.0000 </r>
       <r>    6.0558    0.0000 </r>
       <r>    6.1417    0.0000 </r>
       <r>    6.2953    0.0000 </r>
       <r>    8.2865    0.0000 </r>
      </set>
      <set comment="kpoint 7">
       <r>  -52.6321    1.0000 </r>
       <r>  -28.9756    1.0000 </r>
       <r>  -28.8738    1.0000 </r>
       <r>  -28.8602    1.0000 </r>
       <r>  -28.8291    1.0000 </r>
       <r>  -13.3996    1.0000 </r>
       <r>  -12.4397    1.0000 </r>
       <r>  -12.3718    1.0000 </r>
       <r>  -10.8841    1.0000 </r>
       <r>  -10.8220    1.0000 </r>
       <r>  -10.6036    1.0000 </r>
       <r>    0.4010    1.0000 </r>
       <r>    0.9543    1.0000 </r>
       <r>    1.1227    1.0000 </r>
       <r>    1.6308    1.0000 </r>
       <r>    2.0954    1.0000 </r>
       <r>    2.3617    1.0000 </r>
       <r>    2.8018    1.0000 </r>
       <r>    3.0705    1.0000 </r>
       <r>    3.1665    1.0000 </r>
       <r>    6.1346    0.0000 </r>
       <r>    6.7716    0.0000 </r>
       <r>    6.8312    0.0000 </r>
       <r>    8.3648    0.0000 </r>
      </set>
      <set comment="kpoint 8">
       <r>  -52.6316    1.0000 </r>
       <r>  -28.9986    1.0000 </r>
       <r>  -28.8706    1.0000 </r>
       <r>  -28.8593    1.0000 </r>
       <r>  -28.8232    1.0000 </r>
       <r>  -13.4708    1.0000 </r>
       <r>  -12.3866    1.0000 </r>
       <r>  -12.2836    1.0000 </r>
       <r>  -10.8687    1.0000 </r>
       <r>  -10.8093    1.0000 </r>
       <r>  -10.4483    1.0000 </r>
       <r>   -0.0846    1.0000 </r>
       <r>    0.8522    1.0000 </r>
       <r>    1.1354    1.0000 </r>
       <r>    1.1724    1.0000 </r>
       <r>    1.7410    1.0000 </r>
       <r>    2.0033    1.0000 </r>
       <r>    2.6882    1.0000 </r>
       <r>    2.9452    1.0000 </r>
       <r>    3.0484    1.0000 </r>
       <r>    6.1810    0.0000 </r>
       <r>    7.3537    0.0000 </r>
       <r>    7.3722    0.0000 </r>
       <r>    8.3780    0.0000 </r>
      </set>
      <set comment="kpoint 9">
       <r>  -52.6314    1.0000 </r>
       <r>  -29.0082    1.0000 </r>
       <r>  -28.8686    1.0000 </r>
       <r>  -28.8589    1.0000 </r>
       <r>  -28.8215    1.0000 </r>
       <r>  -13.5086    1.0000 </r>
       <r>  -12.3700    1.0000 </r>
       <r>  -12.2245    1.0000 </r>
       <r>  -10.8624    1.0000 </r>
       <r>  -10.8036    1.0000 </r>
       <r>  -10.3903    1.0000 </r>
       <r>   -0.2998    1.0000 </r>
       <r>    0.7892    1.0000 </r>
       <r>    1.0299    1.0000 </r>
       <r>    1.1577    1.0000 </r>
       <r>    1.5874    1.0000 </r>
       <r>    1.8926    1.0000 </r>
       <r>    2.6327    1.0000 </r>
       <r>    2.8984    1.0000 </r>
       <r>    3.0083    1.0000 </r>
       <r>    6.2005    0.0000 </r>
       <r>    7.5833    0.0000 </r>
       <r>    7.5982    0.0000 </r>
       <r>    8.3789    0.0000 </r>
      </set>
      <set comment="kpoint 10">
       <r>  -52.6316    1.0000 </r>
       <r>  -28.9727    1.0000 </r>
       <r>  -28.8921    1.0000 </r>
       <r>  -28.8593    1.0000 </r>
       <r>  -28.8287    1.0000 </r>
       <r>  -13.3100    1.0000 </r>
       <r>  -12.5166    1.0000 </r>
       <r>  -12.3304    1.0000 </r>
       <r>  -10.8679    1.0000 </r>
       <r>  -10.7049    1.0000 </r>
       <r>  -10.5867    1.0000 </r>
       <r>    0.1918    1.0000 </r>
       <r>    0.6433    1.0000 </r>
       <r>    0.9694    1.0000 </r>
       <r>    1.1196    1.0000 </r>
       <r>    1.8368    1.0000 </r>
       <r>    2.2793    1.0000 </r>
       <r>    2.6145    1.0000 </r>
       <r>    2.8766    1.0000 </r>
       <r>    3.2289    1.0000 </r>
       <r>    6.7194    0.0000 </r>
       <r>    6.8539    0.0000 </r>
       <r>    7.1167    0.0000 </r>
       <r>    8.6660    0.0000 </r>
      </set>
      <set comment="kpoint 11">
       <r>  -52.6312    1.0000 </r>
       <r>  -28.9786    1.0000 </r>
       <r>  -28.8947    1.0000 </r>
       <r>  -28.8585    1.0000 </r>
       <r>  -28.8348    1.0000 </r>
       <r>  -13.2794    1.0000 </r>
       <r>  -12.4809    1.0000 </r>
       <r>  -12.3152    1.0000 </r>
       <r>  -10.8515    1.0000 </r>
       <r>  -10.6724    1.0000 </r>
       <r>  -10.5015    1.0000 </r>
       <r>   -0.1487    1.0000 </r>
       <r>    0.2730    1.0000 </r>
       <r>    0.6127    1.0000 </r>
       <r>    1.1381    1.0000 </r>
       <r>    1.5560    1.0000 </r>
       <r>    2.1431    1.0000 </r>
       <r>    2.5397    1.0000 </r>
       <r>    2.6851    1.0000 </r>
       <r>    3.3178    1.0000 </r>
       <r>    6.8051    0.0000 </r>
       <r>    7.3623    0.0000 </r>
       <r>    7.5143    0.0000 </r>
       <r>    8.7633    0.0000 </r>
      </set>
      <set comment="kpoint 12">
       <r>  -52.6310    1.0000 </r>
       <r>  -28.9838    1.0000 </r>
       <r>  -28.8909    1.0000 </r>
       <r>  -28.8581    1.0000 </r>
       <r>  -28.8395    1.0000 </r>
       <r>  -13.2862    1.0000 </r>
       <r>  -12.3909    1.0000 </r>
       <r>  -12.3594    1.0000 </r>
       <r>  -10.8448    1.0000 </r>
       <r>  -10.6675    1.0000 </r>
       <r>  -10.4591    1.0000 </r>
       <r>   -0.3266    1.0000 </r>
       <r>    0.0757    1.0000 </r>
       <r>    0.5669    1.0000 </r>
       <r>    1.1696    1.0000 </r>
       <r>    1.4175    1.0000 </r>
       <r>    2.1092    1.0000 </r>
       <r>    2.5125    1.0000 </r>
       <r>    2.6222    1.0000 </r>
       <r>    3.3248    1.0000 </r>
       <r>    6.8183    0.0000 </r>
       <r>    7.5849    0.0000 </r>
       <r>    7.7045    0.0000 </r>
       <r>    8.7842    0.0000 </r>
      </set>
      <set comment="kpoint 13">
       <r>  -52.6307    1.0000 </r>
       <r>  -28.9562    1.0000 </r>
       <r>  -28.9134    1.0000 </r>
       <r>  -28.8576    1.0000 </r>
       <r>  -28.8540    1.0000 </r>
       <r>  -13.0700    1.0000 </r>
       <r>  -12.5703    1.0000 </r>
       <r>  -12.3546    1.0000 </r>
       <r>  -10.8342    1.0000 </r>
       <r>  -10.5656    1.0000 </r>
       <r>  -10.5260    1.0000 </r>
       <r>   -0.3332    1.0000 </r>
       <r>   -0.1096    1.0000 </r>
       <r>    0.0945    1.0000 </r>
       <r>    1.1525    1.0000 </r>
       <r>    1.3610    1.0000 </r>
       <r>    2.2507    1.0000 </r>
       <r>    2.4128    1.0000 </r>
       <r>    2.4429    1.0000 </r>
       <r>    3.6425    1.0000 </r>
       <r>    7.3374    0.0000 </r>
       <r>    7.3953    0.0000 </r>
       <r>    7.7731    0.0000 </r>
       <r>    8.9208    0.0000 </r>
      </set>
      <set comment="kpoint 14">
       <r>  -52.6305    1.0000 </r>
       <r>  -28.9495    1.0000 </r>
       <r>  -28.9131    1.0000 </r>
       <r>  -28.8674    1.0000 </r>
       <r>  -28.8573    1.0000 </r>
       <r>  -12.9871    1.0000 </r>
       <r>  -12.5351    1.0000 </r>
       <r>  -12.4388    1.0000 </r>
       <r>  -10.8270    1.0000 </r>
       <r>  -10.5522    1.0000 </r>
       <r>  -10.5016    1.0000 </r>
       <r>   -0.4008    1.0000 </r>
       <r>   -0.3967    1.0000 </r>
       <r>    0.0209    1.0000 </r>
       <r>    1.1835    1.0000 </r>
       <r>    1.2553    1.0000 </r>
       <r>    2.3173    1.0000 </r>
       <r>    2.3188    1.0000 </r>
       <r>    2.4104    1.0000 </r>
       <r>    3.7336    1.0000 </r>
       <r>    7.3699    0.0000 </r>
       <r>    7.5875    0.0000 </r>
       <r>    7.9133    0.0000 </r>
       <r>    8.9582    0.0000 </r>
      </set>
      <set comment="kpoint 15">
       <r>  -52.6303    1.0000 </r>
       <r>  -28.9222    1.0000 </r>
       <r>  -28.9222    1.0000 </r>
       <r>  -28.8920    1.0000 </r>
       <r>  -28.8569    1.0000 </r>
       <r>  -12.7511    1.0000 </r>
       <r>  -12.5904    1.0000 </r>
       <r>  -12.5904    1.0000 </r>
       <r>  -10.8196    1.0000 </r>
       <r>  -10.5086    1.0000 </r>
       <r>  -10.5086    1.0000 </r>
       <r>   -0.5616    1.0000 </r>
       <r>   -0.5062    1.0000 </r>
       <r>   -0.1412    1.0000 </r>
       <r>    1.1902    1.0000 </r>
       <r>    1.1902    1.0000 </r>
       <r>    2.2053    1.0000 </r>
       <r>    2.4052    1.0000 </r>
       <r>    2.4052    1.0000 </r>
       <r>    3.8574    1.0000 </r>
       <r>    7.5888    0.0000 </r>
       <r>    7.5888    0.0000 </r>
       <r>    8.0309    0.0000 </r>
       <r>    8.9993    0.0000 </r>
      </set>
      <set comment="kpoint 16">
       <r>  -52.6323    1.0000 </r>
       <r>  -28.9578    1.0000 </r>
       <r>  -28.8703    1.0000 </r>
       <r>  -28.8703    1.0000 </r>
       <r>  -28.8327    1.0000 </r>
       <r>  -13.3561    1.0000 </r>
       <r>  -12.4387    1.0000 </r>
       <r>  -12.4387    1.0000 </r>
       <r>  -10.8575    1.0000 </r>
       <r>  -10.8575    1.0000 </r>
       <r>  -10.7241    1.0000 </r>
       <r>    0.6930    1.0000 </r>
       <r>    1.0531    1.0000 </r>
       <r>    1.0531    1.0000 </r>
       <r>    2.1096    1.0000 </r>
       <r>    2.1096    1.0000 </r>
       <r>    2.6704    1.0000 </r>
       <r>    2.9710    1.0000 </r>
       <r>    3.1884    1.0000 </r>
       <r>    3.1884    1.0000 </r>
       <r>    6.2578    0.0000 </r>
       <r>    6.3430    0.0000 </r>
       <r>    6.3430    0.0000 </r>
       <r>    8.7636    0.0000 </r>
      </set>
      <set comment="kpoint 17">
       <r>  -52.6319    1.0000 </r>
       <r>  -28.9724    1.0000 </r>
       <r>  -28.8762    1.0000 </r>
       <r>  -28.8694    1.0000 </r>
       <r>  -28.8267    1.0000 </r>
       <r>  -13.3482    1.0000 </r>
       <r>  -12.4301    1.0000 </r>
       <r>  -12.4025    1.0000 </r>
       <r>  -10.8786    1.0000 </r>
       <r>  -10.7938    1.0000 </r>
       <r>  -10.5940    1.0000 </r>
       <r>    0.3365    1.0000 </r>
       <r>    0.8778    1.0000 </r>
       <r>    1.0485    1.0000 </r>
       <r>    1.6249    1.0000 </r>
       <r>    1.6329    1.0000 </r>
       <r>    2.3611    1.0000 </r>
       <r>    2.9476    1.0000 </r>
       <r>    2.9528    1.0000 </r>
       <r>    3.0766    1.0000 </r>
       <r>    6.3548    0.0000 </r>
       <r>    6.8472    0.0000 </r>
       <r>    6.8566    0.0000 </r>
       <r>    8.7614    0.0000 </r>
      </set>
      <set comment="kpoint 18">
       <r>  -52.6314    1.0000 </r>
       <r>  -28.9914    1.0000 </r>
       <r>  -28.8720    1.0000 </r>
       <r>  -28.8685    1.0000 </r>
       <r>  -28.8261    1.0000 </r>
       <r>  -13.3961    1.0000 </r>
       <r>  -12.3647    1.0000 </r>
       <r>  -12.3321    1.0000 </r>
       <r>  -10.9013    1.0000 </r>
       <r>  -10.7428    1.0000 </r>
       <r>  -10.4742    1.0000 </r>
       <r>   -0.1008    1.0000 </r>
       <r>    0.7093    1.0000 </r>
       <r>    1.0559    1.0000 </r>
       <r>    1.1160    1.0000 </r>
       <r>    1.2894    1.0000 </r>
       <r>    2.3605    1.0000 </r>
       <r>    2.7073    1.0000 </r>
       <r>    2.8093    1.0000 </r>
       <r>    2.9824    1.0000 </r>
       <r>    6.4048    0.0000 </r>
       <r>    7.3806    0.0000 </r>
       <r>    7.3902    0.0000 </r>
       <r>    8.7541    0.0000 </r>
      </set>
      <set comment="kpoint 19">
       <r>  -52.6312    1.0000 </r>
       <r>  -29.0000    1.0000 </r>
       <r>  -28.8683    1.0000 </r>
       <r>  -28.8681    1.0000 </r>
       <r>  -28.8270    1.0000 </r>
       <r>  -13.4265    1.0000 </r>
       <r>  -12.3486    1.0000 </r>
       <r>  -12.2727    1.0000 </r>
       <r>  -10.9112    1.0000 </r>
       <r>  -10.7219    1.0000 </r>
       <r>  -10.4293    1.0000 </r>
       <r>   -0.3071    1.0000 </r>
       <r>    0.6468    1.0000 </r>
       <r>    0.9400    1.0000 </r>
       <r>    1.0900    1.0000 </r>
       <r>    1.1377    1.0000 </r>
       <r>    2.4816    1.0000 </r>
       <r>    2.5094    1.0000 </r>
       <r>    2.7345    1.0000 </r>
       <r>    2.9489    1.0000 </r>
       <r>    6.4249    0.0000 </r>
       <r>    7.5994    0.0000 </r>
       <r>    7.6171    0.0000 </r>
       <r>    8.7481    0.0000 </r>
      </set>
      <set comment="kpoint 20">
       <r>  -52.6314    1.0000 </r>
       <r>  -28.9679    1.0000 </r>
       <r>  -28.8917    1.0000 </r>
       <r>  -28.8707    1.0000 </r>
       <r>  -28.8285    1.0000 </r>
       <r>  -13.2485    1.0000 </r>
       <r>  -12.4841    1.0000 </r>
       <r>  -12.3544    1.0000 </r>
       <r>  -10.8760    1.0000 </r>
       <r>  -10.7437    1.0000 </r>
       <r>  -10.5559    1.0000 </r>
       <r>    0.1345    1.0000 </r>
       <r>    0.6463    1.0000 </r>
       <r>    0.9574    1.0000 </r>
       <r>    1.0203    1.0000 </r>
       <r>    1.5114    1.0000 </r>
       <r>    1.9593    1.0000 </r>
       <r>    2.8808    1.0000 </r>
       <r>    2.8855    1.0000 </r>
       <r>    3.2358    1.0000 </r>
       <r>    6.8368    0.0000 </r>
       <r>    6.9433    0.0000 </r>
       <r>    7.1444    0.0000 </r>
       <r>    9.1713    0.0000 </r>
      </set>
      <set comment="kpoint 21">
       <r>  -52.6310    1.0000 </r>
       <r>  -28.9724    1.0000 </r>
       <r>  -28.8944    1.0000 </r>
       <r>  -28.8690    1.0000 </r>
       <r>  -28.8369    1.0000 </r>
       <r>  -13.2042    1.0000 </r>
       <r>  -12.4507    1.0000 </r>
       <r>  -12.3145    1.0000 </r>
       <r>  -10.9039    1.0000 </r>
       <r>  -10.6737    1.0000 </r>
       <r>  -10.5206    1.0000 </r>
       <r>   -0.1590    1.0000 </r>
       <r>    0.2898    1.0000 </r>
       <r>    0.6278    1.0000 </r>
       <r>    0.9539    1.0000 </r>
       <r>    1.2142    1.0000 </r>
       <r>    1.9607    1.0000 </r>
       <r>    2.6997    1.0000 </r>
       <r>    2.8262    1.0000 </r>
       <r>    3.3258    1.0000 </r>
       <r>    6.9271    0.0000 </r>
       <r>    7.4160    0.0000 </r>
       <r>    7.5395    0.0000 </r>
       <r>    9.2524    0.0000 </r>
      </set>
      <set comment="kpoint 22">
       <r>  -52.6308    1.0000 </r>
       <r>  -28.9773    1.0000 </r>
       <r>  -28.8905    1.0000 </r>
       <r>  -28.8673    1.0000 </r>
       <r>  -28.8433    1.0000 </r>
       <r>  -13.2050    1.0000 </r>
       <r>  -12.3863    1.0000 </r>
       <r>  -12.3235    1.0000 </r>
       <r>  -10.9206    1.0000 </r>
       <r>  -10.6355    1.0000 </r>
       <r>  -10.5124    1.0000 </r>
       <r>   -0.3291    1.0000 </r>
       <r>    0.1155    1.0000 </r>
       <r>    0.5619    1.0000 </r>
       <r>    0.9939    1.0000 </r>
       <r>    1.0478    1.0000 </r>
       <r>    2.0164    1.0000 </r>
       <r>    2.6090    1.0000 </r>
       <r>    2.7980    1.0000 </r>
       <r>    3.3329    1.0000 </r>
       <r>    6.9459    0.0000 </r>
       <r>    7.6304    0.0000 </r>
       <r>    7.7282    0.0000 </r>
       <r>    9.2619    0.0000 </r>
      </set>
      <set comment="kpoint 23">
       <r>  -52.6305    1.0000 </r>
       <r>  -28.9514    1.0000 </r>
       <r>  -28.9130    1.0000 </r>
       <r>  -28.8682    1.0000 </r>
       <r>  -28.8547    1.0000 </r>
       <r>  -12.9930    1.0000 </r>
       <r>  -12.5240    1.0000 </r>
       <r>  -12.3244    1.0000 </r>
       <r>  -10.8929    1.0000 </r>
       <r>  -10.6307    1.0000 </r>
       <r>  -10.5466    1.0000 </r>
       <r>   -0.3032    1.0000 </r>
       <r>   -0.0514    1.0000 </r>
       <r>    0.0980    1.0000 </r>
       <r>    0.9275    1.0000 </r>
       <r>    1.0993    1.0000 </r>
       <r>    1.8198    1.0000 </r>
       <r>    2.6798    1.0000 </r>
       <r>    2.7597    1.0000 </r>
       <r>    3.6503    1.0000 </r>
       <r>    7.4138    0.0000 </r>
       <r>    7.4668    0.0000 </r>
       <r>    7.8006    0.0000 </r>
       <r>    9.4273    0.0000 </r>
      </set>
      <set comment="kpoint 24">
       <r>  -52.6303    1.0000 </r>
       <r>  -28.9457    1.0000 </r>
       <r>  -28.9126    1.0000 </r>
       <r>  -28.8684    1.0000 </r>
       <r>  -28.8665    1.0000 </r>
       <r>  -12.9072    1.0000 </r>
       <r>  -12.4954    1.0000 </r>
       <r>  -12.3865    1.0000 </r>
       <r>  -10.8902    1.0000 </r>
       <r>  -10.5926    1.0000 </r>
       <r>  -10.5704    1.0000 </r>
       <r>   -0.3966    1.0000 </r>
       <r>   -0.2945    1.0000 </r>
       <r>    0.0255    1.0000 </r>
       <r>    0.9732    1.0000 </r>
       <r>    0.9826    1.0000 </r>
       <r>    1.8089    1.0000 </r>
       <r>    2.6851    1.0000 </r>
       <r>    2.7321    1.0000 </r>
       <r>    3.7433    1.0000 </r>
       <r>    7.4510    0.0000 </r>
       <r>    7.6526    0.0000 </r>
       <r>    7.9410    0.0000 </r>
       <r>    9.4585    0.0000 </r>
      </set>
      <set comment="kpoint 25">
       <r>  -52.6301    1.0000 </r>
       <r>  -28.9218    1.0000 </r>
       <r>  -28.9218    1.0000 </r>
       <r>  -28.8897    1.0000 </r>
       <r>  -28.8661    1.0000 </r>
       <r>  -12.6636    1.0000 </r>
       <r>  -12.5393    1.0000 </r>
       <r>  -12.5393    1.0000 </r>
       <r>  -10.8700    1.0000 </r>
       <r>  -10.5835    1.0000 </r>
       <r>  -10.5835    1.0000 </r>
       <r>   -0.5001    1.0000 </r>
       <r>   -0.4381    1.0000 </r>
       <r>   -0.1388    1.0000 </r>
       <r>    0.9595    1.0000 </r>
       <r>    0.9595    1.0000 </r>
       <r>    1.7515    1.0000 </r>
       <r>    2.7253    1.0000 </r>
       <r>    2.7253    1.0000 </r>
       <r>    3.8702    1.0000 </r>
       <r>    7.6611    0.0000 </r>
       <r>    7.6611    0.0000 </r>
       <r>    8.0599    0.0000 </r>
       <r>    9.4931    0.0000 </r>
      </set>
      <set comment="kpoint 26">
       <r>  -52.6310    1.0000 </r>
       <r>  -28.9581    1.0000 </r>
       <r>  -28.8907    1.0000 </r>
       <r>  -28.8907    1.0000 </r>
       <r>  -28.8337    1.0000 </r>
       <r>  -13.1123    1.0000 </r>
       <r>  -12.3986    1.0000 </r>
       <r>  -12.3986    1.0000 </r>
       <r>  -10.8443    1.0000 </r>
       <r>  -10.8443    1.0000 </r>
       <r>  -10.5281    1.0000 </r>
       <r>   -0.0007    1.0000 </r>
       <r>    0.6519    1.0000 </r>
       <r>    0.6519    1.0000 </r>
       <r>    1.0711    1.0000 </r>
       <r>    1.0711    1.0000 </r>
       <r>    1.1863    1.0000 </r>
       <r>    3.0401    1.0000 </r>
       <r>    3.0401    1.0000 </r>
       <r>    3.3519    1.0000 </r>
       <r>    7.1660    0.0000 </r>
       <r>    7.2272    0.0000 </r>
       <r>    7.2272    0.0000 </r>
       <r>   10.1605    0.0000 </r>
      </set>
      <set comment="kpoint 27">
       <r>  -52.6305    1.0000 </r>
       <r>  -28.9562    1.0000 </r>
       <r>  -28.8958    1.0000 </r>
       <r>  -28.8897    1.0000 </r>
       <r>  -28.8455    1.0000 </r>
       <r>  -13.0117    1.0000 </r>
       <r>  -12.4012    1.0000 </r>
       <r>  -12.3004    1.0000 </r>
       <r>  -10.9581    1.0000 </r>
       <r>  -10.7502    1.0000 </r>
       <r>  -10.5580    1.0000 </r>
       <r>   -0.1877    1.0000 </r>
       <r>    0.2617    1.0000 </r>
       <r>    0.6178    1.0000 </r>
       <r>    0.6426    1.0000 </r>
       <r>    0.7931    1.0000 </r>
       <r>    1.2244    1.0000 </r>
       <r>    3.0338    1.0000 </r>
       <r>    3.1366    1.0000 </r>
       <r>    3.4375    1.0000 </r>
       <r>    7.2654    0.0000 </r>
       <r>    7.5898    0.0000 </r>
       <r>    7.6091    0.0000 </r>
       <r>   10.1353    0.0000 </r>
      </set>
      <set comment="kpoint 28">
       <r>  -52.6303    1.0000 </r>
       <r>  -28.9596    1.0000 </r>
       <r>  -28.8898    1.0000 </r>
       <r>  -28.8893    1.0000 </r>
       <r>  -28.8544    1.0000 </r>
       <r>  -12.9872    1.0000 </r>
       <r>  -12.3825    1.0000 </r>
       <r>  -12.2541    1.0000 </r>
       <r>  -11.0106    1.0000 </r>
       <r>  -10.6434    1.0000 </r>
       <r>  -10.6372    1.0000 </r>
       <r>   -0.3391    1.0000 </r>
       <r>    0.1214    1.0000 </r>
       <r>    0.4898    1.0000 </r>
       <r>    0.6094    1.0000 </r>
       <r>    0.7286    1.0000 </r>
       <r>    1.2713    1.0000 </r>
       <r>    3.0276    1.0000 </r>
       <r>    3.1566    1.0000 </r>
       <r>    3.4444    1.0000 </r>
       <r>    7.2912    0.0000 </r>
       <r>    7.7675    0.0000 </r>
       <r>    7.7971    0.0000 </r>
       <r>   10.1203    0.0000 </r>
      </set>
      <set comment="kpoint 29">
       <r>  -52.6300    1.0000 </r>
       <r>  -28.9388    1.0000 </r>
       <r>  -28.9119    1.0000 </r>
       <r>  -28.8906    1.0000 </r>
       <r>  -28.8604    1.0000 </r>
       <r>  -12.7960    1.0000 </r>
       <r>  -12.3977    1.0000 </r>
       <r>  -12.2616    1.0000 </r>
       <r>  -10.9886    1.0000 </r>
       <r>  -10.8023    1.0000 </r>
       <r>  -10.6329    1.0000 </r>
       <r>   -0.2661    1.0000 </r>
       <r>    0.1073    1.0000 </r>
       <r>    0.1163    1.0000 </r>
       <r>    0.5563    1.0000 </r>
       <r>    0.7158    1.0000 </r>
       <r>    0.9225    1.0000 </r>
       <r>    3.1746    1.0000 </r>
       <r>    3.2535    1.0000 </r>
       <r>    3.6812    1.0000 </r>
       <r>    7.6402    0.0000 </r>
       <r>    7.6727    0.0000 </r>
       <r>    7.8683    0.0000 </r>
       <r>   10.4565    0.0000 </r>
      </set>
      <set comment="kpoint 30">
       <r>  -52.6298    1.0000 </r>
       <r>  -28.9360    1.0000 </r>
       <r>  -28.9116    1.0000 </r>
       <r>  -28.8886    1.0000 </r>
       <r>  -28.8714    1.0000 </r>
       <r>  -12.6977    1.0000 </r>
       <r>  -12.3908    1.0000 </r>
       <r>  -12.2583    1.0000 </r>
       <r>  -11.0198    1.0000 </r>
       <r>  -10.7465    1.0000 </r>
       <r>  -10.7196    1.0000 </r>
       <r>   -0.3932    1.0000 </r>
       <r>   -0.0509    1.0000 </r>
       <r>    0.0369    1.0000 </r>
       <r>    0.5817    1.0000 </r>
       <r>    0.6175    1.0000 </r>
       <r>    0.9191    1.0000 </r>
       <r>    3.2211    1.0000 </r>
       <r>    3.2754    1.0000 </r>
       <r>    3.7717    1.0000 </r>
       <r>    7.6805    0.0000 </r>
       <r>    7.8359    0.0000 </r>
       <r>    8.0090    0.0000 </r>
       <r>   10.4664    0.0000 </r>
      </set>
      <set comment="kpoint 31">
       <r>  -52.6297    1.0000 </r>
       <r>  -28.9207    1.0000 </r>
       <r>  -28.9207    1.0000 </r>
       <r>  -28.8882    1.0000 </r>
       <r>  -28.8840    1.0000 </r>
       <r>  -12.4449    1.0000 </r>
       <r>  -12.3983    1.0000 </r>
       <r>  -12.3983    1.0000 </r>
       <r>  -10.9885    1.0000 </r>
       <r>  -10.7823    1.0000 </r>
       <r>  -10.7823    1.0000 </r>
       <r>   -0.4949    1.0000 </r>
       <r>   -0.1394    1.0000 </r>
       <r>   -0.1328    1.0000 </r>
       <r>    0.6096    1.0000 </r>
       <r>    0.6096    1.0000 </r>
       <r>    0.8275    1.0000 </r>
       <r>    3.2961    1.0000 </r>
       <r>    3.2961    1.0000 </r>
       <r>    3.9014    1.0000 </r>
       <r>    7.8587    0.0000 </r>
       <r>    7.8587    0.0000 </r>
       <r>    8.1303    0.0000 </r>
       <r>   10.4636    0.0000 </r>
      </set>
      <set comment="kpoint 32">
       <r>  -52.6296    1.0000 </r>
       <r>  -28.9246    1.0000 </r>
       <r>  -28.9108    1.0000 </r>
       <r>  -28.9108    1.0000 </r>
       <r>  -28.8696    1.0000 </r>
       <r>  -12.5658    1.0000 </r>
       <r>  -12.2383    1.0000 </r>
       <r>  -12.2383    1.0000 </r>
       <r>  -11.0065    1.0000 </r>
       <r>  -11.0065    1.0000 </r>
       <r>  -10.7756    1.0000 </r>
       <r>   -0.3058    1.0000 </r>
       <r>    0.1191    1.0000 </r>
       <r>    0.1191    1.0000 </r>
       <r>    0.2356    1.0000 </r>
       <r>    0.4528    1.0000 </r>
       <r>    0.4528    1.0000 </r>
       <r>    3.5531    1.0000 </r>
       <r>    3.5531    1.0000 </r>
       <r>    3.7645    1.0000 </r>
       <r>    7.9150    0.0000 </r>
       <r>    7.9460    0.0000 </r>
       <r>    7.9460    0.0000 </r>
       <r>   11.1959    0.0000 </r>
      </set>
      <set comment="kpoint 33">
       <r>  -52.6294    1.0000 </r>
       <r>  -28.9249    1.0000 </r>
       <r>  -28.9107    1.0000 </r>
       <r>  -28.9104    1.0000 </r>
       <r>  -28.8758    1.0000 </r>
       <r>  -12.4331    1.0000 </r>
       <r>  -12.2701    1.0000 </r>
       <r>  -12.1548    1.0000 </r>
       <r>  -11.1085    1.0000 </r>
       <r>  -10.9393    1.0000 </r>
       <r>  -10.9004    1.0000 </r>
       <r>   -0.4418    1.0000 </r>
       <r>    0.0110    1.0000 </r>
       <r>    0.1263    1.0000 </r>
       <r>    0.1571    1.0000 </r>
       <r>    0.3600    1.0000 </r>
       <r>    0.4734    1.0000 </r>
       <r>    3.6158    1.0000 </r>
       <r>    3.6886    1.0000 </r>
       <r>    3.8355    1.0000 </r>
       <r>    7.9642    0.0000 </r>
       <r>    8.0651    0.0000 </r>
       <r>    8.0885    0.0000 </r>
       <r>   11.0386    0.0000 </r>
      </set>
      <set comment="kpoint 34">
       <r>  -52.6292    1.0000 </r>
       <r>  -28.9196    1.0000 </r>
       <r>  -28.9196    1.0000 </r>
       <r>  -28.9101    1.0000 </r>
       <r>  -28.8783    1.0000 </r>
       <r>  -12.2138    1.0000 </r>
       <r>  -12.2138    1.0000 </r>
       <r>  -12.2126    1.0000 </r>
       <r>  -11.1026    1.0000 </r>
       <r>  -11.0235    1.0000 </r>
       <r>  -11.0235    1.0000 </r>
       <r>   -0.5436    1.0000 </r>
       <r>   -0.1268    1.0000 </r>
       <r>    0.0892    1.0000 </r>
       <r>    0.1614    1.0000 </r>
       <r>    0.3695    1.0000 </r>
       <r>    0.3695    1.0000 </r>
       <r>    3.7656    1.0000 </r>
       <r>    3.7656    1.0000 </r>
       <r>    3.9331    1.0000 </r>
       <r>    8.1056    0.0000 </r>
       <r>    8.1056    0.0000 </r>
       <r>    8.2020    0.0000 </r>
       <r>   10.8246    0.0000 </r>
      </set>
      <set comment="kpoint 35">
       <r>  -52.6290    1.0000 </r>
       <r>  -28.9191    1.0000 </r>
       <r>  -28.9191    1.0000 </r>
       <r>  -28.9191    1.0000 </r>
       <r>  -28.8760    1.0000 </r>
       <r>  -12.1121    1.0000 </r>
       <r>  -12.1121    1.0000 </r>
       <r>  -12.1121    1.0000 </r>
       <r>  -11.1487    1.0000 </r>
       <r>  -11.1487    1.0000 </r>
       <r>  -11.1487    1.0000 </r>
       <r>   -0.6323    1.0000 </r>
       <r>   -0.1243    1.0000 </r>
       <r>   -0.1243    1.0000 </r>
       <r>    0.2867    1.0000 </r>
       <r>    0.2867    1.0000 </r>
       <r>    0.2867    1.0000 </r>
       <r>    3.9464    1.0000 </r>
       <r>    3.9464    1.0000 </r>
       <r>    3.9464    1.0000 </r>
       <r>    8.2321    0.0000 </r>
       <r>    8.2321    0.0000 </r>
       <r>    8.2321    0.0000 </r>
       <r>   10.7823    0.0000 </r>
      </set>
     </set>
    </set>
   </array>
  </eigenvalues>
  <separator name="orbital magnetization" >
   <v name="MAGDIPOLOUT">      0.00000000      0.00000000      0.00000000</v>
  </separator>
  <dos>
   <i name="efermi">      3.97258204 </i>
   <total>
    <array>
     <dimension dim="1">gridpoints</dimension>
     <dimension dim="2">spin</dimension>
     <field>energy</field>
     <field>total</field>
     <field>integrated</field>
     <set>
      <set comment="spin 1">
       <r>   -55.8244     0.0000     0.0000 </r>
       <r>   -55.5903     0.0000     0.0000 </r>
       <r>   -55.3563     0.0000     0.0000 </r>
       <r>   -55.1223     0.0000     0.0000 </r>
       <r>   -54.8882     0.0000     0.0000 </r>
       <r>   -54.6542     0.0000     0.0000 </r>
       <r>   -54.4201     0.0000     0.0000 </r>
       <r>   -54.1861     0.0000     0.0000 </r>
       <r>   -53.9521     0.0000     0.0000 </r>
       <r>   -53.7180     0.0000     0.0000 </r>
       <r>   -53.4840     0.0000     0.0000 </r>
       <r>   -53.2499     0.0000     0.0000 </r>
       <r>   -53.0159     0.0000     0.0000 </r>
       <r>   -52.7819     0.0000     0.0000 </r>
       <r>   -52.5478     0.0000     2.0000 </r>
       <r>   -52.3138     0.0000     2.0000 </r>
       <r>   -52.0797     0.0000     2.0000 </r>
       <r>   -51.8457     0.0000     2.0000 </r>
       <r>   -51.6117     0.0000     2.0000 </r>
       <r>   -51.3776     0.0000     2.0000 </r>
       <r>   -51.1436     0.0000     2.0000 </r>
       <r>   -50.9095     0.0000     2.0000 </r>
       <r>   -50.6755     0.0000     2.0000 </r>
       <r>   -50.4415     0.0000     2.0000 </r>
       <r>   -50.2074     0.0000     2.0000 </r>
       <r>   -49.9734     0.0000     2.0000 </r>
       <r>   -49.7394     0.0000     2.0000 </r>
       <r>   -49.5053     0.0000     2.0000 </r>
       <r>   -49.2713     0.0000     2.0000 </r>
       <r>   -49.0372     0.0000     2.0000 </r>
       <r>   -48.8032     0.0000     2.0000 </r>
       <r>   -48.5692     0.0000     2.0000 </r>
       <r>   -48.3351     0.0000     2.0000 </r>
       <r>   -48.1011     0.0000     2.0000 </r>
       <r>   -47.8670     0.0000     2.0000 </r>
       <r>   -47.6330     0.0000     2.0000 </r>
       <r>   -47.3990     0.0000     2.0000 </r>
       <r>   -47.1649     0.0000     2.0000 </r>
       <r>   -46.9309     0.0000     2.0000 </r>
       <r>   -46.6968     0.0000     2.0000 </r>
       <r>   -46.4628     0.0000     2.0000 </r>
       <r>   -46.2288     0.0000     2.0000 </r>
       <r>   -45.9947     0.0000     2.0000 </r>
       <r>   -45.7607     0.0000     2.0000 </r>
       <r>   -45.5267     0.0000     2.0000 </r>
       <r>   -45.2926     0.0000     2.0000 </r>
       <r>   -45.0586     0.0000     2.0000 </r>
       <r>   -44.8245     0.0000     2.0000 </r>
       <r>   -44.5905     0.0000     2.0000 </r>
       <r>   -44.3565     0.0000     2.0000 </r>
       <r>   -44.1224     0.0000     2.0000 </r>
       <r>   -43.8884     0.0000     2.0000 </r>
       <r>   -43.6543     0.0000     2.0000 </r>
       <r>   -43.4203     0.0000     2.0000 </r>
       <r>   -43.1863     0.0000     2.0000 </r>
       <r>   -42.9522     0.0000     2.0000 </r>
       <r>   -42.7182     0.0000     2.0000 </r>
       <r>   -42.4841     0.0000     2.0000 </r>
       <r>   -42.2501     0.0000     2.0000 </r>
       <r>   -42.0161     0.0000     2.0000 </r>
       <r>   -41.7820     0.0000     2.0000 </r>
       <r>   -41.5480     0.0000     2.0000 </r>
       <r>   -41.3140     0.0000     2.0000 </r>
       <r>   -41.0799     0.0000     2.0000 </r>
       <r>   -40.8459     0.0000     2.0000 </r>
       <r>   -40.6118     0.0000     2.0000 </r>
       <r>   -40.3778     0.0000     2.0000 </r>
       <r>   -40.1438     0.0000     2.0000 </r>
       <r>   -39.9097     0.0000     2.0000 </r>
       <r>   -39.6757     0.0000     2.0000 </r>
       <r>   -39.4416     0.0000     2.0000 </r>
       <r>   -39.2076     0.0000     2.0000 </r>
       <r>   -38.9736     0.0000     2.0000 </r>
       <r>   -38.7395     0.0000     2.0000 </r>
       <r>   -38.5055     0.0000     2.0000 </r>
       <r>   -38.2714     0.0000     2.0000 </r>
       <r>   -38.0374     0.0000     2.0000 </r>
       <r>   -37.8034     0.0000     2.0000 </r>
       <r>   -37.5693     0.0000     2.0000 </r>
       <r>   -37.3353     0.0000     2.0000 </r>
       <r>   -37.1013     0.0000     2.0000 </r>
       <r>   -36.8672     0.0000     2.0000 </r>
       <r>   -36.6332     0.0000     2.0000 </r>
       <r>   -36.3991     0.0000     2.0000 </r>
       <r>   -36.1651     0.0000     2.0000 </r>
       <r>   -35.9311     0.0000     2.0000 </r>
       <r>   -35.6970     0.0000     2.0000 </r>
       <r>   -35.4630     0.0000     2.0000 </r>
       <r>   -35.2289     0.0000     2.0000 </r>
       <r>   -34.9949     0.0000     2.0000 </r>
       <r>   -34.7609     0.0000     2.0000 </r>
       <r>   -34.5268     0.0000     2.0000 </r>
       <r>   -34.2928     0.0000     2.0000 </r>
       <r>   -34.0587     0.0000     2.0000 </r>
       <r>   -33.8247     0.0000     2.0000 </r>
       <r>   -33.5907     0.0000     2.0000 </r>
       <r>   -33.3566     0.0000     2.0000 </r>
       <r>   -33.1226     0.0000     2.0000 </r>
       <r>   -32.8886     0.0000     2.0000 </r>
       <r>   -32.6545     0.0000     2.0000 </r>
       <r>   -32.4205     0.0000     2.0000 </r>
       <r>   -32.1864     0.0000     2.0000 </r>
       <r>   -31.9524     0.0000     2.0000 </r>
       <r>   -31.7184     0.0000     2.0000 </r>
       <r>   -31.4843     0.0000     2.0000 </r>
       <r>   -31.2503     0.0000     2.0000 </r>
       <r>   -31.0162     0.0000     2.0000 </r>
       <r>   -30.7822     0.0000     2.0000 </r>
       <r>   -30.5482     0.0000     2.0000 </r>
       <r>   -30.3141     0.0000     2.0000 </r>
       <r>   -30.0801     0.0000     2.0000 </r>
       <r>   -29.8460     0.0000     2.0000 </r>
       <r>   -29.6120     0.0000     2.0000 </r>
       <r>   -29.3780     0.0000     2.0000 </r>
       <r>   -29.1439     0.0000     2.0000 </r>
       <r>   -28.9099    34.5958     4.4391 </r>
       <r>   -28.6759     0.0000    10.0000 </r>
       <r>   -28.4418     0.0000    10.0000 </r>
       <r>   -28.2078     0.0000    10.0000 </r>
       <r>   -27.9737     0.0000    10.0000 </r>
       <r>   -27.7397     0.0000    10.0000 </r>
       <r>   -27.5057     0.0000    10.0000 </r>
       <r>   -27.2716     0.0000    10.0000 </r>
       <r>   -27.0376     0.0000    10.0000 </r>
       <r>   -26.8035     0.0000    10.0000 </r>
       <r>   -26.5695     0.0000    10.0000 </r>
       <r>   -26.3355     0.0000    10.0000 </r>
       <r>   -26.1014     0.0000    10.0000 </r>
       <r>   -25.8674     0.0000    10.0000 </r>
       <r>   -25.6333     0.0000    10.0000 </r>
       <r>   -25.3993     0.0000    10.0000 </r>
       <r>   -25.1653     0.0000    10.0000 </r>
       <r>   -24.9312     0.0000    10.0000 </r>
       <r>   -24.6972     0.0000    10.0000 </r>
       <r>   -24.4631     0.0000    10.0000 </r>
       <r>   -24.2291     0.0000    10.0000 </r>
       <r>   -23.9951     0.0000    10.0000 </r>
       <r>   -23.7610     0.0000    10.0000 </r>
       <r>   -23.5270     0.0000    10.0000 </r>
       <r>   -23.2930     0.0000    10.0000 </r>
       <r>   -23.0589     0.0000    10.0000 </r>
       <r>   -22.8249     0.0000    10.0000 </r>
       <r>   -22.5908     0.0000    10.0000 </r>
       <r>   -22.3568     0.0000    10.0000 </r>
       <r>   -22.1228     0.0000    10.0000 </r>
       <r>   -21.8887     0.0000    10.0000 </r>
       <r>   -21.6547     0.0000    10.0000 </r>
       <r>   -21.4206     0.0000    10.0000 </r>
       <r>   -21.1866     0.0000    10.0000 </r>
       <r>   -20.9526     0.0000    10.0000 </r>
       <r>   -20.7185     0.0000    10.0000 </r>
       <r>   -20.4845     0.0000    10.0000 </r>
       <r>   -20.2504     0.0000    10.0000 </r>
       <r>   -20.0164     0.0000    10.0000 </r>
       <r>   -19.7824     0.0000    10.0000 </r>
       <r>   -19.5483     0.0000    10.0000 </r>
       <r>   -19.3143     0.0000    10.0000 </r>
       <r>   -19.0803     0.0000    10.0000 </r>
       <r>   -18.8462     0.0000    10.0000 </r>
       <r>   -18.6122     0.0000    10.0000 </r>
       <r>   -18.3781     0.0000    10.0000 </r>
       <r>   -18.1441     0.0000    10.0000 </r>
       <r>   -17.9101     0.0000    10.0000 </r>
       <r>   -17.6760     0.0000    10.0000 </r>
       <r>   -17.4420     0.0000    10.0000 </r>
       <r>   -17.2079     0.0000    10.0000 </r>
       <r>   -16.9739     0.0000    10.0000 </r>
       <r>   -16.7399     0.0000    10.0000 </r>
       <r>   -16.5058     0.0000    10.0000 </r>
       <r>   -16.2718     0.0000    10.0000 </r>
       <r>   -16.0377     0.0000    10.0000 </r>
       <r>   -15.8037     0.0000    10.0000 </r>
       <r>   -15.5697     0.0000    10.0000 </r>
       <r>   -15.3356     0.0000    10.0000 </r>
       <r>   -15.1016     0.0000    10.0000 </r>
       <r>   -14.8676     0.0000    10.0000 </r>
       <r>   -14.6335     0.0000    10.0000 </r>
       <r>   -14.3995     0.0000    10.0000 </r>
       <r>   -14.1654     0.0000    10.0000 </r>
       <r>   -13.9314     0.0000    10.0000 </r>
       <r>   -13.6974     0.0000    10.0000 </r>
       <r>   -13.4633     1.7981    10.0955 </r>
       <r>   -13.2293     2.7514    10.9332 </r>
       <r>   -12.9952     1.8750    11.4400 </r>
       <r>   -12.7612     0.9695    11.7717 </r>
       <r>   -12.5272     4.2595    12.0142 </r>
       <r>   -12.2931    11.1574    15.4244 </r>
       <r>   -12.0591     0.0000    16.0000 </r>
       <r>   -11.8250     0.0000    16.0000 </r>
       <r>   -11.5910     0.0000    16.0000 </r>
       <r>   -11.3570     0.0000    16.0000 </r>
       <r>   -11.1229     0.2555    16.0022 </r>
       <r>   -10.8889    30.2640    17.1450 </r>
       <r>   -10.6549     9.7711    19.9839 </r>
       <r>   -10.4208     2.2201    21.9471 </r>
       <r>   -10.1868     0.0000    22.0000 </r>
       <r>    -9.9527     0.0000    22.0000 </r>
       <r>    -9.7187     0.0000    22.0000 </r>
       <r>    -9.4847     0.0000    22.0000 </r>
       <r>    -9.2506     0.0000    22.0000 </r>
       <r>    -9.0166     0.0000    22.0000 </r>
       <r>    -8.7825     0.0000    22.0000 </r>
       <r>    -8.5485     0.0000    22.0000 </r>
       <r>    -8.3145     0.0000    22.0000 </r>
       <r>    -8.0804     0.0000    22.0000 </r>
       <r>    -7.8464     0.0000    22.0000 </r>
       <r>    -7.6123     0.0000    22.0000 </r>
       <r>    -7.3783     0.0000    22.0000 </r>
       <r>    -7.1443     0.0000    22.0000 </r>
       <r>    -6.9102     0.0000    22.0000 </r>
       <r>    -6.6762     0.0000    22.0000 </r>
       <r>    -6.4422     0.0000    22.0000 </r>
       <r>    -6.2081     0.0000    22.0000 </r>
       <r>    -5.9741     0.0000    22.0000 </r>
       <r>    -5.7400     0.0000    22.0000 </r>
       <r>    -5.5060     0.0000    22.0000 </r>
       <r>    -5.2720     0.0000    22.0000 </r>
       <r>    -5.0379     0.0000    22.0000 </r>
       <r>    -4.8039     0.0000    22.0000 </r>
       <r>    -4.5698     0.0000    22.0000 </r>
       <r>    -4.3358     0.0000    22.0000 </r>
       <r>    -4.1018     0.0000    22.0000 </r>
       <r>    -3.8677     0.0000    22.0000 </r>
       <r>    -3.6337     0.0000    22.0000 </r>
       <r>    -3.3996     0.0000    22.0000 </r>
       <r>    -3.1656     0.0000    22.0000 </r>
       <r>    -2.9316     0.0000    22.0000 </r>
       <r>    -2.6975     0.0000    22.0000 </r>
       <r>    -2.4635     0.0000    22.0000 </r>
       <r>    -2.2294     0.0000    22.0000 </r>
       <r>    -1.9954     0.0000    22.0000 </r>
       <r>    -1.7614     0.0000    22.0000 </r>
       <r>    -1.5273     0.0000    22.0000 </r>
       <r>    -1.2933     0.0000    22.0000 </r>
       <r>    -1.0593     0.0000    22.0000 </r>
       <r>    -0.8252     0.0000    22.0000 </r>
       <r>    -0.5912     0.0336    22.0005 </r>
       <r>    -0.3571     4.6947    22.3666 </r>
       <r>    -0.1231     3.6201    23.4849 </r>
       <r>     0.1109     6.4309    24.6264 </r>
       <r>     0.3450     3.6961    25.5623 </r>
       <r>     0.5790     5.1611    26.5399 </r>
       <r>     0.8131     5.6479    27.7797 </r>
       <r>     1.0471     9.3642    29.3595 </r>
       <r>     1.2811     3.1141    30.9734 </r>
       <r>     1.5152     2.4948    31.6291 </r>
       <r>     1.7492     1.9070    32.1489 </r>
       <r>     1.9833     3.2155    32.6567 </r>
       <r>     2.2173     2.7820    33.4511 </r>
       <r>     2.4513     2.0732    33.9162 </r>
       <r>     2.6854     5.9464    34.9234 </r>
       <r>     2.9194     6.6379    36.4203 </r>
       <r>     3.1534     6.0948    37.7355 </r>
       <r>     3.3875     3.3352    38.8534 </r>
       <r>     3.6215     2.0710    39.4433 </r>
       <r>     3.8556     1.0638    39.9562 </r>
       <r>     4.0896     0.0000    40.0000 </r>
       <r>     4.3236     0.0000    40.0000 </r>
       <r>     4.5577     0.0000    40.0000 </r>
       <r>     4.7917     0.0000    40.0000 </r>
       <r>     5.0258     0.0000    40.0000 </r>
       <r>     5.2598     0.0000    40.0000 </r>
       <r>     5.4938     0.0000    40.0000 </r>
       <r>     5.7279     0.0000    40.0000 </r>
       <r>     5.9619     0.5477    40.0490 </r>
       <r>     6.1960     1.4846    40.2974 </r>
       <r>     6.4300     1.3299    40.6177 </r>
       <r>     6.6640     1.6619    40.9675 </r>
       <r>     6.8981     2.4300    41.4435 </r>
       <r>     7.1321     2.7445    42.0390 </r>
       <r>     7.3661     4.0661    42.7520 </r>
       <r>     7.6002     7.0456    44.2624 </r>
       <r>     7.8342     3.1859    45.2951 </r>
       <r>     8.0683     1.5668    45.9025 </r>
       <r>     8.3023     0.7664    46.1087 </r>
       <r>     8.5363     1.0346    46.3237 </r>
       <r>     8.7704     1.1006    46.5831 </r>
       <r>     9.0044     1.4000    46.8784 </r>
       <r>     9.2385     1.0466    47.1680 </r>
       <r>     9.4725     0.6023    47.3586 </r>
       <r>     9.7065     0.5127    47.4871 </r>
       <r>     9.9406     0.4435    47.5989 </r>
       <r>    10.1746     0.4339    47.6967 </r>
       <r>    10.4087     0.3779    47.7916 </r>
       <r>    10.6427     0.3107    47.8739 </r>
       <r>    10.8767     0.3480    47.9440 </r>
       <r>    11.1108     0.0535    47.9985 </r>
       <r>    11.3448     0.0000    48.0000 </r>
       <r>    11.5788     0.0000    48.0000 </r>
       <r>    11.8129     0.0000    48.0000 </r>
       <r>    12.0469     0.0000    48.0000 </r>
       <r>    12.2810     0.0000    48.0000 </r>
       <r>    12.5150     0.0000    48.0000 </r>
       <r>    12.7490     0.0000    48.0000 </r>
       <r>    12.9831     0.0000    48.0000 </r>
       <r>    13.2171     0.0000    48.0000 </r>
       <r>    13.4512     0.0000    48.0000 </r>
       <r>    13.6852     0.0000    48.0000 </r>
       <r>    13.9192     0.0000    48.0000 </r>
       <r>    14.1533     0.0000    48.0000 </r>
       <r>    14.3873     0.0000    48.0000 </r>
      </set>
     </set>
    </array>
   </total>
  </dos>
 </calculation>
 <structure name="finalpos" >
  <crystal>
   <varray name="basis" >
    <v>       3.94052300       0.00000000       0.00000000 </v>
    <v>       0.00000000       3.94052300       0.00000000 </v>
    <v>       0.00000000       0.00000000       3.94052300 </v>
   </varray>
   <i name="volume">     61.18734376 </i>
   <varray name="rec_basis" >
    <v>       0.25377342       0.00000000       0.00000000 </v>
    <v>       0.00000000       0.25377342       0.00000000 </v>
    <v>       0.00000000       0.00000000       0.25377342 </v>
   </varray>
  </crystal>
  <varray name="positions" >
   <v>       0.00000000       0.50000000       0.50000000 </v>
   <v>       0.50000000       0.00000000       0.50000000 </v>
   <v>       0.50000000       0.50000000       0.00000000 </v>
   <v>       0.00000000       0.00000000       0.00000000 </v>
   <v>       0.50000000       0.50000000       0.50000000 </v>
  </varray>
 </structure>
</modeling>
