 running on  100 total cores
 distrk:  each k-point on  100 cores,    1 groups
 distr:  one band on   25 cores,    4 groups
 using from now: INCAR     
 vasp.5.4.4.18Apr17-6-g9f103f2a35 (build May 23 2017 16:08:52) complex          
  
 POSCAR found :  4 types and      75 ions
 scaLAPACK will be used

 ----------------------------------------------------------------------------- 
|                                                                             |
|           W    W    AA    RRRRR   N    N  II  N    N   GGGG   !!!           |
|           W    W   A  A   R    R  NN   N  II  NN   N  G    G  !!!           |
|           W    W  A    A  R    R  N N  N  II  N N  N  G       !!!           |
|           W WW W  AAAAAA  RRRRR   N  N N  II  N  N N  G  GGG   !            |
|           WW  WW  A    A  R   R   N   NN  II  N   NN  G    G                |
|           W    W  A    A  R    R  N    N  II  N    N   GGGG   !!!           |
|                                                                             |
|      For optimal performance we recommend to set                            |
|        NCORE= 4 - approx SQRT( number of cores)                             |
|      NCORE specifies how many cores store one orbital (NPAR=cpu/NCORE).     |
|      This setting can  greatly improve the performance of VASP for DFT.     |
|      The default,   NCORE=1            might be grossly inefficient         |
|      on modern multi-core architectures or massively parallel machines.     |
|      Do your own testing !!!!                                               |
|      Unfortunately you need to use the default for GW and RPA calculations. |
|      (for HF NCORE is supported but not extensively tested yet)             |
|                                                                             |
 ----------------------------------------------------------------------------- 


 ----------------------------------------------------------------------------- 
|                                                                             |
|  ADVICE TO THIS USER RUNNING 'VASP/VAMP'   (HEAR YOUR MASTER'S VOICE ...):  |
|                                                                             |
|      You have a (more or less) 'large supercell' and for larger cells       |
|      it might be more efficient to use real space projection opertators     |
|      So try LREAL= Auto  in the INCAR   file.                               |
|      Mind:          For very  accurate calculation you might also keep the  |
|      reciprocal projection scheme          (i.e. LREAL=.FALSE.)             |
|                                                                             |
 ----------------------------------------------------------------------------- 

 LDA part: xc-table for Pade appr. of Perdew
 POSCAR, INCAR and KPOINTS ok, starting setup
 FFT: planning ...
 WAVECAR not read
 entering main loop
       N       E                     dE             d eps       ncg     rms          rms(c)
DAV:   1     0.793681089669E+04    0.79368E+04   -0.29493E+05 11648   0.176E+03
DAV:   2     0.960385892143E+03   -0.69764E+04   -0.65828E+04 11688   0.544E+02
DAV:   3    -0.608649229329E+03   -0.15690E+04   -0.15066E+04 15288   0.238E+02
DAV:   4    -0.739486656533E+03   -0.13084E+03   -0.12982E+03 16816   0.763E+01
DAV:   5    -0.750100358577E+03   -0.10614E+02   -0.10570E+02 21344   0.185E+01    0.976E+01
DAV:   6    -0.601924052781E+03    0.14818E+03   -0.84767E+02 16448   0.708E+01    0.572E+01
DAV:   7    -0.604535071609E+03   -0.26110E+01   -0.14756E+02 16000   0.265E+01    0.398E+01
DAV:   8    -0.609883786069E+03   -0.53487E+01   -0.48985E+01 16592   0.209E+01    0.212E+01
DAV:   9    -0.604116694582E+03    0.57671E+01   -0.24314E+01 16016   0.147E+01    0.695E+00
DAV:  10    -0.603552980442E+03    0.56371E+00   -0.41981E+00 16688   0.573E+00    0.341E+00
DAV:  11    -0.603531496148E+03    0.21484E-01   -0.10189E+00 17820   0.276E+00    0.232E+00
DAV:  12    -0.603543484918E+03   -0.11989E-01   -0.49437E-01 17312   0.182E+00    0.162E+00
DAV:  13    -0.603554865070E+03   -0.11380E-01   -0.54211E-01 16420   0.169E+00    0.133E+00
DAV:  14    -0.603528617631E+03    0.26247E-01   -0.17915E-01 16152   0.104E+00    0.439E-01
DAV:  15    -0.603529728390E+03   -0.11108E-02   -0.31561E-02 17056   0.447E-01    0.282E-01
DAV:  16    -0.603528749302E+03    0.97909E-03   -0.90262E-03 16232   0.271E-01    0.166E-01
DAV:  17    -0.603529596667E+03   -0.84737E-03   -0.45981E-03 18900   0.168E-01    0.123E-01
DAV:  18    -0.603529851576E+03   -0.25491E-03   -0.17659E-03 16176   0.130E-01    0.725E-02
DAV:  19    -0.603529525373E+03    0.32620E-03   -0.11156E-03 16196   0.679E-02    0.662E-02
DAV:  20    -0.603529649128E+03   -0.12376E-03   -0.40211E-04 12896   0.443E-02    0.419E-02
DAV:  21    -0.603529776642E+03   -0.12751E-03   -0.34609E-04 11092   0.304E-02    0.480E-02
DAV:  22    -0.603529489412E+03    0.28723E-03   -0.30727E-04  8512   0.315E-02    0.279E-02
DAV:  23    -0.603529573919E+03   -0.84507E-04   -0.27533E-05  6956   0.159E-02    0.953E-03
DAV:  24    -0.603529616173E+03   -0.42254E-04   -0.63607E-06  6544   0.783E-03    0.733E-03
DAV:  25    -0.603529628032E+03   -0.11859E-04   -0.15792E-05  6520   0.686E-03    0.222E-02
DAV:  26    -0.603529606591E+03    0.21441E-04   -0.34893E-05  6472   0.596E-03    0.781E-03
DAV:  27    -0.603529622175E+03   -0.15584E-04   -0.26465E-06  6456   0.350E-03    0.561E-03
DAV:  28    -0.603529625024E+03   -0.28492E-05   -0.11874E-06  6416   0.257E-03
   1 F= -.60352963E+03 E0= -.60352963E+03  d E =-.603530E+03
 curvature:   0.00 expect dE= 0.000E+00 dE for cont linesearch  0.000E+00
 trial: gam= 0.00000 g(F)=  0.741E+00 g(S)=  0.363E+00 ort = 0.000E+00 (trialstep = 0.100E+01)
 search vector abs. value=  0.110E+01
 bond charge predicted
       N       E                     dE             d eps       ncg     rms          rms(c)
DAV:   1    -0.604048171133E+03   -0.51855E+00   -0.16639E+02 14396   0.466E+01    0.125E+01
DAV:   2    -0.604433152327E+03   -0.38498E+00   -0.29818E+01 13412   0.128E+01    0.712E+00
DAV:   3    -0.604074822387E+03    0.35833E+00   -0.43953E+00 17136   0.474E+00    0.427E+00
DAV:   4    -0.604036413937E+03    0.38408E-01   -0.26746E+00 16120   0.445E+00    0.324E+00
DAV:   5    -0.603918401467E+03    0.11801E+00   -0.11686E+00 16280   0.299E+00    0.239E+00
DAV:   6    -0.603869851600E+03    0.48550E-01   -0.40296E-01 17072   0.148E+00    0.150E+00
DAV:   7    -0.603871192696E+03   -0.13411E-02   -0.39348E-02 17956   0.468E-01    0.133E+00
DAV:   8    -0.603879108954E+03   -0.79163E-02   -0.32609E-02 18016   0.450E-01    0.120E+00
DAV:   9    -0.603886574841E+03   -0.74659E-02   -0.88950E-02 15940   0.724E-01    0.917E-01
DAV:  10    -0.603883931758E+03    0.26431E-02   -0.60391E-02 16376   0.626E-01    0.362E-01
DAV:  11    -0.603883808034E+03    0.12372E-03   -0.11905E-02 17720   0.330E-01    0.143E-01
DAV:  12    -0.603884063041E+03   -0.25501E-03   -0.26631E-03 19136   0.109E-01    0.115E-01
DAV:  13    -0.603884053470E+03    0.95713E-05   -0.10090E-03 17216   0.726E-02    0.101E-01
DAV:  14    -0.603884086973E+03   -0.33503E-04   -0.87789E-04 15264   0.701E-02    0.703E-02
DAV:  15    -0.603884115241E+03   -0.28268E-04   -0.31847E-04 13984   0.538E-02    0.344E-02
DAV:  16    -0.603884195198E+03   -0.79957E-04   -0.72844E-05 12880   0.284E-02    0.184E-02
DAV:  17    -0.603884216154E+03   -0.20956E-04   -0.28872E-05  9408   0.168E-02    0.106E-02
DAV:  18    -0.603884225388E+03   -0.92346E-05   -0.10876E-05  6760   0.122E-02
   2 F= -.60388423E+03 E0= -.60388423E+03  d E =-.354600E+00
 trial-energy change:   -0.354600  1 .order   -0.344218   -1.104865    0.416428
 step:   0.7343(harm=  0.7263)  dis= 0.03934  next Energy=  -603.939362 (dE=-0.410E+00)
 bond charge predicted
       N       E                     dE             d eps       ncg     rms          rms(c)
DAV:   1    -0.603974995522E+03   -0.90779E-01   -0.11908E+01 14908   0.126E+01    0.341E+00
DAV:   2    -0.603980083019E+03   -0.50875E-02   -0.19291E+00 13216   0.324E+00    0.181E+00
DAV:   3    -0.603948209353E+03    0.31874E-01   -0.30722E-01 17048   0.132E+00    0.108E+00
DAV:   4    -0.603947440131E+03    0.76922E-03   -0.22881E-01 15592   0.138E+00    0.907E-01
DAV:   5    -0.603944066658E+03    0.33735E-02   -0.14876E-01 15432   0.969E-01    0.610E-01
DAV:   6    -0.603937786784E+03    0.62799E-02   -0.42113E-02 16240   0.528E-01    0.325E-01
DAV:   7    -0.603938280605E+03   -0.49382E-03   -0.52921E-03 18488   0.177E-01    0.309E-01
DAV:   8    -0.603938839795E+03   -0.55919E-03   -0.27674E-03 16904   0.103E-01    0.298E-01
DAV:   9    -0.603938831269E+03    0.85255E-05   -0.70320E-04 17328   0.853E-02    0.248E-01
DAV:  10    -0.603939534987E+03   -0.70372E-03   -0.34046E-03 16064   0.136E-01    0.126E-01
DAV:  11    -0.603939662840E+03   -0.12785E-03   -0.88853E-04 17136   0.103E-01    0.799E-02
DAV:  12    -0.603939590132E+03    0.72708E-04   -0.53275E-04 18304   0.476E-02    0.527E-02
DAV:  13    -0.603939578186E+03    0.11946E-04   -0.26515E-04 13200   0.228E-02    0.439E-02
DAV:  14    -0.603939587487E+03   -0.93012E-05   -0.18840E-04  9248   0.200E-02    0.382E-02
DAV:  15    -0.603939552964E+03    0.34523E-04   -0.10216E-04  8088   0.190E-02    0.251E-02
DAV:  16    -0.603939538755E+03    0.14209E-04   -0.68839E-05  7080   0.159E-02    0.222E-02
DAV:  17    -0.603939541161E+03   -0.24058E-05   -0.22112E-05  6480   0.102E-02
   3 F= -.60393954E+03 E0= -.60393954E+03  d E =-.409916E+00
 curvature:  -0.36 expect dE=-0.670E-01 dE for cont linesearch -0.305E-03
 trial: gam= 0.19473 g(F)=  0.117E+00 g(S)=  0.672E-01 ort =-0.305E-01 (trialstep = 0.947E+00)
 search vector abs. value=  0.215E+00
 bond charge predicted
       N       E                     dE             d eps       ncg     rms          rms(c)
DAV:   1    -0.604034067846E+03   -0.94529E-01   -0.25154E+01 14144   0.129E+01    0.333E+00
DAV:   2    -0.604075500758E+03   -0.41433E-01   -0.19503E+00 13564   0.316E+00    0.196E+00
DAV:   3    -0.604082637057E+03   -0.71363E-02   -0.51700E-01 16960   0.198E+00    0.171E+00
DAV:   4    -0.604067662954E+03    0.14974E-01   -0.50222E-01 14840   0.165E+00    0.111E+00
DAV:   5    -0.604051279081E+03    0.16384E-01   -0.11891E-01 16384   0.877E-01    0.410E-01
DAV:   6    -0.604052864730E+03   -0.15856E-02   -0.27889E-02 17796   0.424E-01    0.368E-01
DAV:   7    -0.604052825591E+03    0.39139E-04   -0.10781E-02 17404   0.227E-01    0.331E-01
DAV:   8    -0.604052662581E+03    0.16301E-03   -0.56450E-03 15888   0.153E-01    0.280E-01
DAV:   9    -0.604053731717E+03   -0.10691E-02   -0.82787E-03 17556   0.184E-01    0.236E-01
DAV:  10    -0.604053745504E+03   -0.13787E-04   -0.19852E-03 17600   0.151E-01    0.160E-01
DAV:  11    -0.604053435184E+03    0.31032E-03   -0.13262E-03 17996   0.940E-02    0.967E-02
DAV:  12    -0.604053605445E+03   -0.17026E-03   -0.15899E-03 16840   0.504E-02    0.127E-01
DAV:  13    -0.604053489115E+03    0.11633E-03   -0.16007E-03 12080   0.421E-02    0.937E-02
DAV:  14    -0.604053481860E+03    0.72546E-05   -0.20985E-04  8024   0.231E-02    0.696E-02
DAV:  15    -0.604053498949E+03   -0.17089E-04   -0.35158E-04  7392   0.153E-02    0.759E-02
DAV:  16    -0.604053523530E+03   -0.24581E-04   -0.76634E-05  7136   0.126E-02    0.470E-02
DAV:  17    -0.604053511597E+03    0.11933E-04   -0.77461E-05  6712   0.110E-02    0.290E-02
DAV:  18    -0.604053501867E+03    0.97295E-05   -0.24230E-05  6464   0.736E-03
   4 F= -.60405350E+03 E0= -.60405350E+03  d E =-.113961E+00
 trial-energy change:   -0.113961  1 .order   -0.108633   -0.169244   -0.048022
 step:   1.2264(harm=  1.3219)  dis= 0.03024  next Energy=  -604.060729 (dE=-0.121E+00)
 bond charge predicted
       N       E                     dE             d eps       ncg     rms          rms(c)
DAV:   1    -0.604061236287E+03   -0.77247E-02   -0.21954E+00 13992   0.383E+00    0.986E-01
DAV:   2    -0.604066112702E+03   -0.48764E-02   -0.19502E-01 13744   0.999E-01    0.728E-01
DAV:   3    -0.604074449402E+03   -0.83367E-02   -0.17495E-01 15128   0.916E-01    0.873E-01
DAV:   4    -0.604062944779E+03    0.11505E-01   -0.47504E-02 14736   0.622E-01    0.218E-01
DAV:   5    -0.604063211746E+03   -0.26697E-03   -0.12756E-02 17696   0.301E-01    0.288E-01
DAV:   6    -0.604063213056E+03   -0.13098E-05   -0.96220E-03 15860   0.210E-01    0.126E-01
DAV:   7    -0.604063171623E+03    0.41433E-04   -0.19142E-03 17368   0.863E-02    0.126E-01
DAV:   8    -0.604063137168E+03    0.34455E-04   -0.17081E-03 14716   0.744E-02    0.104E-01
DAV:   9    -0.604063211185E+03   -0.74017E-04   -0.78690E-04 14320   0.542E-02    0.755E-02
DAV:  10    -0.604063265359E+03   -0.54174E-04   -0.36860E-04 15120   0.535E-02    0.574E-02
DAV:  11    -0.604063238163E+03    0.27196E-04   -0.17617E-04 12456   0.405E-02    0.271E-02
DAV:  12    -0.604063217137E+03    0.21026E-04   -0.12784E-04  8688   0.216E-02    0.903E-02
DAV:  13    -0.604063221824E+03   -0.46878E-05   -0.32090E-04  6920   0.128E-02    0.193E-02
DAV:  14    -0.604063220992E+03    0.83251E-06   -0.37056E-05  6776   0.109E-02
   5 F= -.60406322E+03 E0= -.60406322E+03  d E =-.123680E+00
 curvature:  -0.74 expect dE=-0.553E-01 dE for cont linesearch -0.543E-03
 trial: gam= 0.29894 g(F)=  0.660E-01 g(S)=  0.854E-02 ort = 0.125E-01 (trialstep = 0.100E+01)
 search vector abs. value=  0.101E+00
 bond charge predicted
       N       E                     dE             d eps       ncg     rms          rms(c)
DAV:   1    -0.603991993433E+03    0.71228E-01   -0.14814E+01 13180   0.116E+01    0.147E+00
DAV:   2    -0.604103197279E+03   -0.11120E+00   -0.14881E+00 12980   0.261E+00    0.107E+00
DAV:   3    -0.604107559964E+03   -0.43627E-02   -0.12413E-01 18896   0.916E-01    0.694E-01
DAV:   4    -0.604108994546E+03   -0.14346E-02   -0.91315E-02 15496   0.814E-01    0.720E-01
DAV:   5    -0.604104502929E+03    0.44916E-02   -0.81140E-02 15048   0.649E-01    0.401E-01
DAV:   6    -0.604103549189E+03    0.95374E-03   -0.11512E-02 15924   0.413E-01    0.179E-01
DAV:   7    -0.604103721145E+03   -0.17196E-03   -0.48025E-03 17696   0.172E-01    0.162E-01
DAV:   8    -0.604103495745E+03    0.22540E-03   -0.21107E-03 16292   0.123E-01    0.123E-01
DAV:   9    -0.604103606500E+03   -0.11075E-03   -0.91518E-04 17808   0.767E-02    0.895E-02
DAV:  10    -0.604103573448E+03    0.33052E-04   -0.51970E-04 15448   0.780E-02    0.402E-02
DAV:  11    -0.604103582092E+03   -0.86439E-05   -0.11615E-04 13464   0.393E-02    0.202E-02
DAV:  12    -0.604103610569E+03   -0.28477E-04   -0.64384E-05  8704   0.262E-02    0.149E-02
DAV:  13    -0.604103588039E+03    0.22531E-04   -0.40451E-05  7720   0.183E-02    0.969E-03
DAV:  14    -0.604103594154E+03   -0.61151E-05   -0.13102E-05  6688   0.118E-02
   6 F= -.60410359E+03 E0= -.60410359E+03  d E =-.403732E-01
 trial-energy change:   -0.040373  1 .order   -0.040259   -0.078502   -0.002016
 step:   1.0292(harm=  1.0292)  dis= 0.01720  next Energy=  -604.103507 (dE=-0.403E-01)
 bond charge predicted
       N       E                     dE             d eps       ncg     rms          rms(c)
DAV:   1    -0.604103587567E+03    0.47190E-06   -0.10235E-02 13292   0.307E-01    0.383E-02
DAV:   2    -0.604103610418E+03   -0.22851E-04   -0.10369E-03 13144   0.693E-02    0.270E-02
DAV:   3    -0.604103637560E+03   -0.27142E-04   -0.11763E-04 14564   0.252E-02    0.236E-02
DAV:   4    -0.604103655714E+03   -0.18154E-04   -0.24131E-04  8464   0.306E-02    0.331E-02
DAV:   5    -0.604103596374E+03    0.59340E-04   -0.14171E-04  7612   0.246E-02    0.115E-02
DAV:   6    -0.604103630461E+03   -0.34087E-04   -0.17202E-05  6808   0.139E-02    0.786E-03
DAV:   7    -0.604103628562E+03    0.18988E-05   -0.64200E-06  6404   0.983E-03
   7 F= -.60410363E+03 E0= -.60410363E+03  d E =-.404076E-01
 curvature:  -0.67 expect dE=-0.136E-01 dE for cont linesearch -0.635E-08
 trial: gam= 0.33700 g(F)=  0.201E-01 g(S)=  0.436E-03 ort =-0.311E-04 (trialstep = 0.101E+01)
 search vector abs. value=  0.320E-01
 bond charge predicted
       N       E                     dE             d eps       ncg     rms          rms(c)
DAV:   1    -0.604091127890E+03    0.12503E-01   -0.49141E+00 12920   0.596E+00    0.687E-01
DAV:   2    -0.604115664276E+03   -0.24536E-01   -0.31223E-01 12832   0.126E+00    0.610E-01
DAV:   3    -0.604118177269E+03   -0.25130E-02   -0.40995E-02 18192   0.520E-01    0.417E-01
DAV:   4    -0.604118727285E+03   -0.55002E-03   -0.44427E-02 15264   0.554E-01    0.467E-01
DAV:   5    -0.604117008463E+03    0.17188E-02   -0.23342E-02 15376   0.366E-01    0.204E-01
DAV:   6    -0.604117045616E+03   -0.37153E-04   -0.50196E-03 15840   0.243E-01    0.188E-01
DAV:   7    -0.604117078542E+03   -0.32926E-04   -0.80636E-03 14796   0.173E-01    0.108E-01
DAV:   8    -0.604116926741E+03    0.15180E-03   -0.74956E-04 16272   0.796E-02    0.549E-02
DAV:   9    -0.604116899180E+03    0.27561E-04   -0.22819E-04 16700   0.487E-02    0.372E-02
DAV:  10    -0.604116926877E+03   -0.27698E-04   -0.74511E-05 11744   0.267E-02    0.238E-02
DAV:  11    -0.604116918735E+03    0.81426E-05   -0.33345E-05  8228   0.215E-02
   8 F= -.60411692E+03 E0= -.60411692E+03  d E =-.132902E-01
 trial-energy change:   -0.013290  1 .order   -0.013042   -0.020650   -0.005434
 step:   1.3270(harm=  1.3681)  dis= 0.01305  next Energy=  -604.117786 (dE=-0.142E-01)
 bond charge predicted
       N       E                     dE             d eps       ncg     rms          rms(c)
DAV:   1    -0.604115521374E+03    0.14055E-02   -0.49287E-01 12928   0.189E+00    0.218E-01
DAV:   2    -0.604117782290E+03   -0.22609E-02   -0.31586E-02 12828   0.406E-01    0.194E-01
DAV:   3    -0.604118283008E+03   -0.50072E-03   -0.49070E-03 17956   0.180E-01    0.149E-01
DAV:   4    -0.604118350940E+03   -0.67933E-04   -0.89098E-03 15280   0.198E-01    0.210E-01
DAV:   5    -0.604117925441E+03    0.42550E-03   -0.48039E-03 14916   0.147E-01    0.823E-02
DAV:   6    -0.604118082155E+03   -0.15671E-03   -0.91732E-04 15128   0.836E-02    0.547E-02
DAV:   7    -0.604117998488E+03    0.83667E-04   -0.32923E-04 12916   0.561E-02    0.266E-02
DAV:   8    -0.604118008188E+03   -0.97006E-05   -0.52486E-05 10024   0.230E-02
   9 F= -.60411801E+03 E0= -.60411801E+03  d E =-.143796E-01
 curvature:  -1.05 expect dE=-0.493E-02 dE for cont linesearch -0.280E-04
 trial: gam= 0.15476 g(F)=  0.465E-02 g(S)=  0.267E-04 ort = 0.922E-03 (trialstep = 0.107E+01)
 search vector abs. value=  0.573E-02
 bond charge predicted
       N       E                     dE             d eps       ncg     rms          rms(c)
DAV:   1    -0.604110122991E+03    0.78755E-02   -0.11241E+00 12824   0.346E+00    0.313E-01
DAV:   2    -0.604120512373E+03   -0.10389E-01   -0.11730E-01 13064   0.774E-01    0.300E-01
DAV:   3    -0.604121261115E+03   -0.74874E-03   -0.20244E-02 17936   0.340E-01    0.240E-01
DAV:   4    -0.604120808907E+03    0.45221E-03   -0.97078E-03 15104   0.267E-01    0.182E-01
DAV:   5    -0.604120674293E+03    0.13461E-03   -0.47246E-03 15872   0.174E-01    0.133E-01
DAV:   6    -0.604120708807E+03   -0.34514E-04   -0.21828E-03 15040   0.133E-01    0.925E-02
DAV:   7    -0.604120549464E+03    0.15934E-03   -0.94491E-04 14976   0.103E-01    0.455E-02
DAV:   8    -0.604120595217E+03   -0.45752E-04   -0.19778E-04 13272   0.468E-02    0.249E-02
DAV:   9    -0.604120586368E+03    0.88484E-05   -0.83135E-05 12012   0.254E-02
  10 F= -.60412059E+03 E0= -.60412059E+03  d E =-.257818E-02
 trial-energy change:   -0.002578  1 .order   -0.002773   -0.005171   -0.000376
 step:   1.1873(harm=  1.1560)  dis= 0.00419  next Energy=  -604.120606 (dE=-0.260E-02)
 bond charge predicted
       N       E                     dE             d eps       ncg     rms          rms(c)
DAV:   1    -0.604120459350E+03    0.13587E-03   -0.13093E-02 12840   0.374E-01    0.365E-02
DAV:   2    -0.604120568201E+03   -0.10885E-03   -0.15758E-03 13228   0.905E-02    0.505E-02
DAV:   3    -0.604120618918E+03   -0.50717E-04   -0.50316E-04 13848   0.523E-02    0.388E-02
DAV:   4    -0.604120586016E+03    0.32901E-04   -0.33903E-04  9836   0.347E-02    0.311E-02
DAV:   5    -0.604120566734E+03    0.19282E-04   -0.13994E-04  8028   0.243E-02    0.173E-02
DAV:   6    -0.604120602729E+03   -0.35994E-04   -0.42802E-05  7512   0.205E-02    0.160E-02
DAV:   7    -0.604120583762E+03    0.18966E-04   -0.31869E-05  7292   0.180E-02    0.659E-03
DAV:   8    -0.604120581515E+03    0.22467E-05   -0.61230E-06  6424   0.810E-03
  11 F= -.60412058E+03 E0= -.60412058E+03  d E =-.257333E-02
 curvature:  -0.59 expect dE=-0.144E-02 dE for cont linesearch -0.928E-06
 trial: gam= 0.56311 g(F)=  0.237E-02 g(S)=  0.619E-04 ort =-0.948E-04 (trialstep = 0.109E+01)
 search vector abs. value=  0.414E-02
 bond charge predicted
       N       E                     dE             d eps       ncg     rms          rms(c)
DAV:   1    -0.604116484996E+03    0.40988E-02   -0.96283E-01 12748   0.271E+00    0.253E-01
DAV:   2    -0.604121766797E+03   -0.52818E-02   -0.61755E-02 12956   0.554E-01    0.214E-01
DAV:   3    -0.604121976625E+03   -0.20983E-03   -0.60155E-03 19056   0.189E-01    0.157E-01
DAV:   4    -0.604122022566E+03   -0.45941E-04   -0.73735E-03 15828   0.194E-01    0.173E-01
DAV:   5    -0.604121756891E+03    0.26568E-03   -0.24009E-03 15000   0.140E-01    0.799E-02
DAV:   6    -0.604121772295E+03   -0.15404E-04   -0.82680E-04 15628   0.848E-02    0.570E-02
DAV:   7    -0.604121675772E+03    0.96523E-04   -0.42228E-04 14024   0.589E-02    0.345E-02
DAV:   8    -0.604121702662E+03   -0.26889E-04   -0.98083E-05 11060   0.281E-02    0.241E-02
DAV:   9    -0.604121704845E+03   -0.21835E-05   -0.42865E-05  8392   0.225E-02
  12 F= -.60412170E+03 E0= -.60412170E+03  d E =-.112333E-02
 trial-energy change:   -0.001123  1 .order   -0.001392   -0.002604   -0.000180
 step:   1.1764(harm=  1.1764)  dis= 0.00446  next Energy=  -604.121980 (dE=-0.140E-02)
 bond charge predicted
       N       E                     dE             d eps       ncg     rms          rms(c)
DAV:   1    -0.604121652131E+03    0.50531E-04   -0.54083E-03 12696   0.204E-01    0.217E-02
DAV:   2    -0.604121678550E+03   -0.26419E-04   -0.43985E-04 13280   0.536E-02    0.326E-02
DAV:   3    -0.604121683324E+03   -0.47748E-05   -0.21464E-04 10652   0.348E-02    0.234E-02
DAV:   4    -0.604121673586E+03    0.97385E-05   -0.84169E-05  7592   0.209E-02
  13 F= -.60412167E+03 E0= -.60412167E+03  d E =-.109207E-02
 curvature:  -1.02 expect dE=-0.137E-02 dE for cont linesearch -0.117E-05
 trial: gam= 0.48580 g(F)=  0.133E-02 g(S)=  0.509E-05 ort = 0.689E-04 (trialstep = 0.111E+01)
 search vector abs. value=  0.238E-02
 bond charge predicted
       N       E                     dE             d eps       ncg     rms          rms(c)
DAV:   1    -0.604119558880E+03    0.21244E-02   -0.56403E-01 12628   0.201E+00    0.184E-01
DAV:   2    -0.604122044589E+03   -0.24857E-02   -0.31387E-02 12584   0.411E-01    0.175E-01
DAV:   3    -0.604122381097E+03   -0.33651E-03   -0.41322E-03 18256   0.165E-01    0.126E-01
DAV:   4    -0.604122336403E+03    0.44693E-04   -0.41991E-03 15280   0.152E-01    0.145E-01
DAV:   5    -0.604122178315E+03    0.15809E-03   -0.32211E-03 14948   0.125E-01    0.939E-02
DAV:   6    -0.604122249209E+03   -0.70894E-04   -0.12633E-03 14928   0.104E-01    0.625E-02
DAV:   7    -0.604122182667E+03    0.66542E-04   -0.22384E-04 14260   0.534E-02    0.318E-02
DAV:   8    -0.604122177887E+03    0.47801E-05   -0.70045E-05 11128   0.244E-02
  14 F= -.60412218E+03 E0= -.60412218E+03  d E =-.504301E-03
 trial-energy change:   -0.000504  1 .order   -0.000787   -0.001522   -0.000052
 step:   1.1504(harm=  1.1504)  dis= 0.00312  next Energy=  -604.122461 (dE=-0.788E-03)
 bond charge predicted
       N       E                     dE             d eps       ncg     rms          rms(c)
DAV:   1    -0.604122153617E+03    0.29050E-04   -0.76363E-04 12912   0.760E-02    0.196E-02
DAV:   2    -0.604122180982E+03   -0.27365E-04   -0.20571E-04 11784   0.343E-02    0.327E-02
DAV:   3    -0.604122170184E+03    0.10798E-04   -0.26618E-04  8540   0.324E-02    0.252E-02
DAV:   4    -0.604122156876E+03    0.13308E-04   -0.86477E-05  7536   0.204E-02    0.124E-02
DAV:   5    -0.604122165572E+03   -0.86962E-05   -0.13230E-05  6456   0.107E-02
  15 F= -.60412217E+03 E0= -.60412217E+03  d E =-.491986E-03
 curvature:  -1.00 expect dE=-0.511E-03 dE for cont linesearch -0.103E-05
 trial: gam= 0.46625 g(F)=  0.489E-03 g(S)=  0.222E-04 ort =-0.495E-04 (trialstep = 0.112E+01)
 search vector abs. value=  0.982E-03
 bond charge predicted
       N       E                     dE             d eps       ncg     rms          rms(c)
DAV:   1    -0.604120833497E+03    0.13234E-02   -0.23219E-01 12824   0.142E+00    0.159E-01
DAV:   2    -0.604122300766E+03   -0.14673E-02   -0.18192E-02 12740   0.305E-01    0.119E-01
DAV:   3    -0.604122389084E+03   -0.88318E-04   -0.20046E-03 18744   0.114E-01    0.916E-02
DAV:   4    -0.604122443826E+03   -0.54742E-04   -0.35094E-03 15680   0.125E-01    0.119E-01
DAV:   5    -0.604122315603E+03    0.12822E-03   -0.20076E-03 14600   0.103E-01    0.789E-02
DAV:   6    -0.604122378403E+03   -0.62800E-04   -0.11568E-03 13588   0.786E-02    0.486E-02
DAV:   7    -0.604122296773E+03    0.81630E-04   -0.16872E-04 11864   0.401E-02    0.210E-02
DAV:   8    -0.604122312268E+03   -0.15495E-04   -0.22549E-05  8764   0.160E-02    0.175E-02
DAV:   9    -0.604122308163E+03    0.41048E-05   -0.14906E-05  6784   0.140E-02
  16 F= -.60412231E+03 E0= -.60412231E+03  d E =-.142592E-03
 trial-energy change:   -0.000143  1 .order   -0.000186   -0.000546    0.000173
 step:   0.7604(harm=  0.8494)  dis= 0.00127  next Energy=  -604.122337 (dE=-0.172E-03)
 bond charge predicted
       N       E                     dE             d eps       ncg     rms          rms(c)
DAV:   1    -0.604122213942E+03    0.98326E-04   -0.23877E-02 12840   0.455E-01    0.511E-02
DAV:   2    -0.604122358869E+03   -0.14493E-03   -0.19227E-03 12904   0.102E-01    0.427E-02
DAV:   3    -0.604122373494E+03   -0.14624E-04   -0.30400E-04 16028   0.480E-02    0.327E-02
DAV:   4    -0.604122363702E+03    0.97919E-05   -0.29545E-04  9808   0.356E-02    0.410E-02
DAV:   5    -0.604122368765E+03   -0.50634E-05   -0.32458E-04  8340   0.344E-02    0.246E-02
DAV:   6    -0.604122365862E+03    0.29027E-05   -0.61361E-05  7800   0.205E-02
  17 F= -.60412237E+03 E0= -.60412237E+03  d E =-.200291E-03
 curvature:  -0.76 expect dE=-0.185E-03 dE for cont linesearch -0.390E-06
 trial: gam= 0.44154 g(F)=  0.228E-03 g(S)=  0.143E-04 ort =-0.224E-04 (trialstep = 0.105E+01)
 search vector abs. value=  0.414E-03
 bond charge predicted
       N       E                     dE             d eps       ncg     rms          rms(c)
DAV:   1    -0.604121959988E+03    0.40878E-03   -0.95848E-02 12892   0.892E-01    0.746E-02
DAV:   2    -0.604122513741E+03   -0.55375E-03   -0.67638E-03 12800   0.191E-01    0.678E-02
DAV:   3    -0.604122568466E+03   -0.54726E-04   -0.56333E-04 18456   0.616E-02    0.510E-02
DAV:   4    -0.604122512538E+03    0.55928E-04   -0.22895E-04 12200   0.454E-02    0.519E-02
DAV:   5    -0.604122564255E+03   -0.51717E-04   -0.68222E-04 10364   0.543E-02    0.621E-02
DAV:   6    -0.604122541110E+03    0.23146E-04   -0.46230E-04  9800   0.475E-02    0.297E-02
DAV:   7    -0.604122497934E+03    0.43175E-04   -0.11897E-04 10712   0.288E-02    0.171E-02
DAV:   8    -0.604122502864E+03   -0.49301E-05   -0.25179E-05  7576   0.161E-02
  18 F= -.60412250E+03 E0= -.60412250E+03  d E =-.137002E-03
 trial-energy change:   -0.000137  1 .order   -0.000095   -0.000243    0.000054
 step:   0.9399(harm=  0.8577)  dis= 0.00109  next Energy=  -604.122506 (dE=-0.140E-03)
 bond charge predicted
       N       E                     dE             d eps       ncg     rms          rms(c)
DAV:   1    -0.604122498338E+03   -0.40387E-06   -0.10211E-03 12748   0.920E-02    0.112E-02
DAV:   2    -0.604122516337E+03   -0.17999E-04   -0.11410E-04 11132   0.282E-02    0.199E-02
DAV:   3    -0.604122504736E+03    0.11601E-04   -0.87876E-05  7880   0.217E-02    0.139E-02
DAV:   4    -0.604122505499E+03   -0.76332E-06   -0.28255E-05  6656   0.123E-02
  19 F= -.60412251E+03 E0= -.60412251E+03  d E =-.139637E-03
 curvature:  -0.62 expect dE=-0.145E-03 dE for cont linesearch -0.181E-05
 trial: gam= 1.24564 g(F)=  0.232E-03 g(S)=  0.280E-05 ort =-0.347E-04 (trialstep = 0.537E+00)
 search vector abs. value=  0.790E-03
 bond charge predicted
       N       E                     dE             d eps       ncg     rms          rms(c)
DAV:   1    -0.604122375771E+03    0.12897E-03   -0.50906E-02 12940   0.600E-01    0.464E-02
DAV:   2    -0.604122615987E+03   -0.24022E-03   -0.28458E-03 12568   0.121E-01    0.433E-02
DAV:   3    -0.604122657452E+03   -0.41465E-04   -0.27275E-04 17320   0.450E-02    0.296E-02
DAV:   4    -0.604122622178E+03    0.35274E-04   -0.95683E-05  9676   0.327E-02    0.259E-02
DAV:   5    -0.604122635618E+03   -0.13440E-04   -0.20572E-04  8372   0.281E-02    0.381E-02
DAV:   6    -0.604122649028E+03   -0.13411E-04   -0.20973E-04  7896   0.291E-02    0.170E-02
DAV:   7    -0.604122635918E+03    0.13111E-04   -0.23302E-05  7008   0.148E-02    0.743E-03
DAV:   8    -0.604122636214E+03   -0.29644E-06   -0.55051E-06  6456   0.887E-03
  20 F= -.60412264E+03 E0= -.60412264E+03  d E =-.130715E-03
 trial-energy change:   -0.000131  1 .order   -0.000061   -0.000103   -0.000019
 step:   0.5571(harm=  0.6590)  dis= 0.00062  next Energy=  -604.122637 (dE=-0.131E-03)
 bond charge predicted
       N       E                     dE             d eps       ncg     rms          rms(c)
DAV:   1    -0.604122638886E+03   -0.29684E-05   -0.66643E-05 10480   0.229E-02    0.567E-03
DAV:   2    -0.604122638967E+03   -0.81236E-07   -0.49468E-06  6868   0.762E-03
  21 F= -.60412264E+03 E0= -.60412264E+03  d E =-.133468E-03
 curvature:  -0.40 expect dE=-0.554E-04 dE for cont linesearch -0.217E-06
 trial: gam= 0.17049 g(F)=  0.134E-03 g(S)=  0.247E-05 ort =-0.206E-04 (trialstep = 0.541E+00)
 search vector abs. value=  0.153E-03
 bond charge predicted
       N       E                     dE             d eps       ncg     rms          rms(c)
DAV:   1    -0.604122626994E+03    0.11892E-04   -0.88490E-03 12996   0.297E-01    0.265E-02
DAV:   2    -0.604122681443E+03   -0.54448E-04   -0.82063E-04 13156   0.694E-02    0.318E-02
DAV:   3    -0.604122676489E+03    0.49533E-05   -0.15440E-04 12612   0.277E-02    0.294E-02
DAV:   4    -0.604122675889E+03    0.60063E-06   -0.15125E-04  8232   0.236E-02    0.257E-02
DAV:   5    -0.604122661204E+03    0.14685E-04   -0.21253E-05  7520   0.186E-02    0.225E-02
DAV:   6    -0.604122648443E+03    0.12760E-04   -0.11602E-05  7008   0.134E-02    0.137E-02
DAV:   7    -0.604122642285E+03    0.61577E-05   -0.56279E-06  7168   0.155E-02
  22 F= -.60412264E+03 E0= -.60412264E+03  d E =-.331795E-05
 trial-energy change:   -0.000003  1 .order   -0.000046   -0.000072   -0.000019
 step:   0.7341(harm=  0.7341)  dis= 0.00046  next Energy=  -604.122688 (dE=-0.490E-04)
 bond charge predicted
       N       E                     dE             d eps       ncg     rms          rms(c)
DAV:   1    -0.604122632303E+03    0.16140E-04   -0.11173E-03 12800   0.106E-01    0.110E-02
DAV:   2    -0.604122637217E+03   -0.49134E-05   -0.14782E-04 11960   0.295E-02    0.215E-02
DAV:   3    -0.604122641423E+03   -0.42067E-05   -0.85619E-05  8148   0.209E-02
  23 F= -.60412264E+03 E0= -.60412264E+03  d E =-.245580E-05
 curvature:  -0.42 expect dE=-0.624E-04 dE for cont linesearch -0.819E-08
 trial: gam= 1.06201 g(F)=  0.147E-03 g(S)=  0.140E-05 ort =-0.173E-05 (trialstep = 0.280E+00)
 search vector abs. value=  0.317E-03
 bond charge predicted
       N       E                     dE             d eps       ncg     rms          rms(c)
DAV:   1    -0.604122644729E+03   -0.75128E-05   -0.52344E-03 12784   0.206E-01    0.218E-02
DAV:   2    -0.604122668512E+03   -0.23783E-04   -0.40680E-04 13096   0.492E-02    0.246E-02
DAV:   3    -0.604122671016E+03   -0.25045E-05   -0.19345E-04 10172   0.301E-02    0.298E-02
DAV:   4    -0.604122673380E+03   -0.23638E-05   -0.13002E-04  7572   0.216E-02    0.137E-02
DAV:   5    -0.604122654663E+03    0.18717E-04   -0.18669E-05  6812   0.147E-02    0.114E-02
DAV:   6    -0.604122669019E+03   -0.14356E-04   -0.15185E-05  6724   0.131E-02    0.977E-03
DAV:   7    -0.604122660434E+03    0.85859E-05   -0.11274E-05  6420   0.947E-03
  24 F= -.60412266E+03 E0= -.60412266E+03  d E =-.190103E-04
 trial-energy change:   -0.000019  1 .order   -0.000032   -0.000041   -0.000022
 step:   0.6115(harm=  0.6115)  dis= 0.00051  next Energy=  -604.122686 (dE=-0.448E-04)
 bond charge predicted
       N       E                     dE             d eps       ncg     rms          rms(c)
DAV:   1    -0.604122633316E+03    0.35703E-04   -0.73048E-03 12768   0.244E-01    0.246E-02
DAV:   2    -0.604122662950E+03   -0.29634E-04   -0.49045E-04 13056   0.591E-02    0.269E-02
DAV:   3    -0.604122671081E+03   -0.81310E-05   -0.10150E-04 12460   0.223E-02    0.249E-02
DAV:   4    -0.604122662106E+03    0.89749E-05   -0.90203E-05  7336   0.197E-02
  25 F= -.60412266E+03 E0= -.60412266E+03  d E =-.206828E-04
 curvature:  -0.66 expect dE=-0.588E-04 dE for cont linesearch -0.182E-05
 ZBRENT: interpolating
 opt :   0.5215  next Energy=  -604.122663 (dE=-0.220E-04)
 bond charge predicted
       N       E                     dE             d eps       ncg     rms          rms(c)
DAV:   1    -0.604122641277E+03    0.29804E-04   -0.62304E-04 12676   0.709E-02    0.218E-02
DAV:   2    -0.604122692885E+03   -0.51608E-04   -0.25175E-04 11080   0.412E-02    0.385E-02
DAV:   3    -0.604122661799E+03    0.31086E-04   -0.29636E-04  8692   0.377E-02    0.226E-02
DAV:   4    -0.604122642001E+03    0.19798E-04   -0.91291E-05  7456   0.223E-02    0.142E-02
DAV:   5    -0.604122654757E+03   -0.12756E-04   -0.17040E-05  6688   0.138E-02    0.923E-03
DAV:   6    -0.604122653457E+03    0.13001E-05   -0.40801E-06  6320   0.581E-03
  26 F= -.60412265E+03 E0= -.60412265E+03  d E =-.120339E-04
 curvature:  -0.48 expect dE=-0.432E-04 dE for cont linesearch -0.227E-05
 ZBRENT: bisectioning
 opt :   0.4005  next Energy=  -604.122659 (dE=-0.174E-04)
 bond charge predicted
       N       E                     dE             d eps       ncg     rms          rms(c)
DAV:   1    -0.604122648169E+03    0.65882E-05   -0.98241E-04 12600   0.890E-02    0.958E-03
DAV:   2    -0.604122660225E+03   -0.12056E-04   -0.80127E-05 11464   0.235E-02    0.138E-02
DAV:   3    -0.604122659345E+03    0.87965E-06   -0.35629E-05  7260   0.135E-02
  27 F= -.60412266E+03 E0= -.60412266E+03  d E =-.179221E-04
 curvature:  -1.15 expect dE=-0.801E-04 dE for cont linesearch -0.716E-06
 ZBRENT: interpolating
 opt :   0.3481  next Energy=  -604.122660 (dE=-0.184E-04)
 bond charge predicted
       N       E                     dE             d eps       ncg     rms          rms(c)
DAV:   1    -0.604122657750E+03    0.24746E-05   -0.20249E-04 12068   0.399E-02    0.910E-03
DAV:   2    -0.604122684452E+03   -0.26702E-04   -0.17015E-04  8368   0.290E-02    0.317E-02
DAV:   3    -0.604122670337E+03    0.14115E-04   -0.97825E-05  7560   0.227E-02    0.107E-02
DAV:   4    -0.604122664697E+03    0.56403E-05   -0.16844E-05  6428   0.682E-03
  28 F= -.60412266E+03 E0= -.60412266E+03  d E =-.232739E-04
 curvature:  -0.73 expect dE=-0.399E-04 dE for cont linesearch -0.109E-06
 trial: gam= 0.36278 g(F)=  0.469E-04 g(S)=  0.743E-05 ort = 0.685E-05 (trialstep = 0.293E+00)
 search vector abs. value=  0.101E-03
 reached required accuracy - stopping structural energy minimisation
 writing wavefunctions
