<?xml version="1.0" encoding="ISO-8859-1"?>
<modeling>
 <generator>
  <i name="program" type="string">vasp </i>
  <i name="version" type="string">5.4.4.18Apr17-6-g9f103f2a35  </i>
  <i name="subversion" type="string">(build Oct 23 2017 21:22:35) complex            parallel </i>
  <i name="platform" type="string">LinuxIFC </i>
  <i name="date" type="string">2017 12 27 </i>
  <i name="time" type="string">07:43:02 </i>
 </generator>
 <incar>
  <i type="string" name="PREC">accurate</i>
  <i type="int" name="IBRION">    -1</i>
  <i name="EDIFF">      0.00001000</i>
  <i name="EDIFFG">     -0.01000000</i>
  <i type="int" name="ISIF">     2</i>
  <i name="ENCUT">    500.00000000</i>
  <i type="int" name="ISMEAR">    -5</i>
  <v type="int" name="KPOINT_BSE">    -1     0     0     0</v>
 </incar>
 <structure name="primitive_cell" >
  <crystal>
   <varray name="basis" >
    <v>       4.05791581       0.00000000       0.00000000 </v>
    <v>       0.00000000       4.05791581       0.00000000 </v>
    <v>       0.00000000       0.00000000       4.05791581 </v>
   </varray>
   <i name="volume">     66.82040414 </i>
   <varray name="rec_basis" >
    <v>       0.24643192       0.00000000       0.00000000 </v>
    <v>       0.00000000       0.24643192       0.00000000 </v>
    <v>       0.00000000       0.00000000       0.24643192 </v>
   </varray>
  </crystal>
  <varray name="positions" >
   <v>      -0.50000000      -0.50000000      -0.50000000 </v>
   <v>       0.00000000      -0.50000000      -0.50000000 </v>
   <v>      -0.50000000       0.00000000      -0.50000000 </v>
   <v>      -0.50000000      -0.50000000       0.00000000 </v>
   <v>       0.00000000       0.00000000       0.00000000 </v>
  </varray>
 </structure>
 <varray name="primitive_index" >
  <v type="int" >        1 </v>
  <v type="int" >        2 </v>
  <v type="int" >        3 </v>
  <v type="int" >        4 </v>
  <v type="int" >        5 </v>
 </varray>
 <kpoints>
  <generation param="Gamma">
   <v type="int" name="divisions">       8        8        8 </v>
   <v name="usershift">      0.00000000       0.00000000       0.00000000 </v>
   <v name="genvec1">      0.12500000       0.00000000       0.00000000 </v>
   <v name="genvec2">      0.00000000       0.12500000       0.00000000 </v>
   <v name="genvec3">      0.00000000       0.00000000       0.12500000 </v>
   <v name="shift">      0.00000000       0.00000000       0.00000000 </v>
  </generation>
  <varray name="kpointlist" >
   <v>       0.00000000       0.00000000       0.00000000 </v>
   <v>       0.12500000       0.00000000       0.00000000 </v>
   <v>       0.25000000       0.00000000       0.00000000 </v>
   <v>       0.37500000       0.00000000       0.00000000 </v>
   <v>       0.50000000       0.00000000       0.00000000 </v>
   <v>       0.12500000       0.12500000       0.00000000 </v>
   <v>       0.25000000       0.12500000       0.00000000 </v>
   <v>       0.37500000       0.12500000       0.00000000 </v>
   <v>       0.50000000       0.12500000       0.00000000 </v>
   <v>       0.25000000       0.25000000       0.00000000 </v>
   <v>       0.37500000       0.25000000       0.00000000 </v>
   <v>       0.50000000       0.25000000       0.00000000 </v>
   <v>       0.37500000       0.37500000       0.00000000 </v>
   <v>       0.50000000       0.37500000       0.00000000 </v>
   <v>       0.50000000       0.50000000       0.00000000 </v>
   <v>       0.12500000       0.12500000       0.12500000 </v>
   <v>       0.25000000       0.12500000       0.12500000 </v>
   <v>       0.37500000       0.12500000       0.12500000 </v>
   <v>       0.50000000       0.12500000       0.12500000 </v>
   <v>       0.25000000       0.25000000       0.12500000 </v>
   <v>       0.37500000       0.25000000       0.12500000 </v>
   <v>       0.50000000       0.25000000       0.12500000 </v>
   <v>       0.37500000       0.37500000       0.12500000 </v>
   <v>       0.50000000       0.37500000       0.12500000 </v>
   <v>       0.50000000       0.50000000       0.12500000 </v>
   <v>       0.25000000       0.25000000       0.25000000 </v>
   <v>       0.37500000       0.25000000       0.25000000 </v>
   <v>       0.50000000       0.25000000       0.25000000 </v>
   <v>       0.37500000       0.37500000       0.25000000 </v>
   <v>       0.50000000       0.37500000       0.25000000 </v>
   <v>       0.50000000       0.50000000       0.25000000 </v>
   <v>       0.37500000       0.37500000       0.37500000 </v>
   <v>       0.50000000       0.37500000       0.37500000 </v>
   <v>       0.50000000       0.50000000       0.37500000 </v>
   <v>       0.50000000       0.50000000       0.50000000 </v>
  </varray>
  <varray name="weights" >
   <v>       0.00195312 </v>
   <v>       0.01171875 </v>
   <v>       0.01171875 </v>
   <v>       0.01171875 </v>
   <v>       0.00585938 </v>
   <v>       0.02343750 </v>
   <v>       0.04687500 </v>
   <v>       0.04687500 </v>
   <v>       0.02343750 </v>
   <v>       0.02343750 </v>
   <v>       0.04687500 </v>
   <v>       0.02343750 </v>
   <v>       0.02343750 </v>
   <v>       0.02343750 </v>
   <v>       0.00585938 </v>
   <v>       0.01562500 </v>
   <v>       0.04687500 </v>
   <v>       0.04687500 </v>
   <v>       0.02343750 </v>
   <v>       0.04687500 </v>
   <v>       0.09375000 </v>
   <v>       0.04687500 </v>
   <v>       0.04687500 </v>
   <v>       0.04687500 </v>
   <v>       0.01171875 </v>
   <v>       0.01562500 </v>
   <v>       0.04687500 </v>
   <v>       0.02343750 </v>
   <v>       0.04687500 </v>
   <v>       0.04687500 </v>
   <v>       0.01171875 </v>
   <v>       0.01562500 </v>
   <v>       0.02343750 </v>
   <v>       0.01171875 </v>
   <v>       0.00195312 </v>
  </varray>
  <varray name="tetrahedronlist"  type="int" >
   <v type="int" >       12        1        2        2        6 </v>
   <v type="int" >       12        2        2        6        6 </v>
   <v type="int" >       12        2        6        6       16 </v>
   <v type="int" >       12        2        3        6        7 </v>
   <v type="int" >       12        2        6        6        7 </v>
   <v type="int" >       12        6        6        7       16 </v>
   <v type="int" >       12        3        6        7        7 </v>
   <v type="int" >       24        6        7        7       17 </v>
   <v type="int" >       24        6        7       16       17 </v>
   <v type="int" >       12        3        4        7        8 </v>
   <v type="int" >       12        3        7        7        8 </v>
   <v type="int" >       12        7        7        8       17 </v>
   <v type="int" >       12        4        7        8        8 </v>
   <v type="int" >       12        7        8        8       18 </v>
   <v type="int" >       12        7        8       17       18 </v>
   <v type="int" >       12        4        5        8        9 </v>
   <v type="int" >       12        4        8        8        9 </v>
   <v type="int" >       12        8        8        9       18 </v>
   <v type="int" >       12        5        8        9        9 </v>
   <v type="int" >       12        8        9        9       19 </v>
   <v type="int" >       12        8        9       18       19 </v>
   <v type="int" >       12        6        7       10       16 </v>
   <v type="int" >       12        7       10       16       17 </v>
   <v type="int" >       12       10       16       17       20 </v>
   <v type="int" >       12        7        8       11       17 </v>
   <v type="int" >       12        7       10       11       17 </v>
   <v type="int" >       12       10       11       17       20 </v>
   <v type="int" >       12        8       11       17       18 </v>
   <v type="int" >       12       11       17       18       21 </v>
   <v type="int" >       12       11       17       20       21 </v>
   <v type="int" >       12        8        9       12       18 </v>
   <v type="int" >       12        8       11       12       18 </v>
   <v type="int" >       12       11       12       18       21 </v>
   <v type="int" >       12        9       12       18       19 </v>
   <v type="int" >       12       12       18       19       22 </v>
   <v type="int" >       12       12       18       21       22 </v>
   <v type="int" >       12        8        9       11       19 </v>
   <v type="int" >       12        9       11       12       19 </v>
   <v type="int" >       12       11       12       19       22 </v>
   <v type="int" >       12        8       11       18       19 </v>
   <v type="int" >       12       11       18       19       21 </v>
   <v type="int" >       12       11       19       21       22 </v>
   <v type="int" >       12        7        8       10       18 </v>
   <v type="int" >       12        8       10       11       18 </v>
   <v type="int" >       12       10       11       18       21 </v>
   <v type="int" >       12        7       10       17       18 </v>
   <v type="int" >       12       10       17       18       20 </v>
   <v type="int" >       12       10       18       20       21 </v>
   <v type="int" >       12        7        7       10       17 </v>
   <v type="int" >       12        7       10       17       20 </v>
   <v type="int" >       12        7       16       17       17 </v>
   <v type="int" >       12        7       17       17       20 </v>
   <v type="int" >       12        2        3        6       16 </v>
   <v type="int" >       12        3        6        7       16 </v>
   <v type="int" >       12        3        7       16       17 </v>
   <v type="int" >       12       10       11       13       20 </v>
   <v type="int" >       12       11       13       20       21 </v>
   <v type="int" >       12       13       20       21       23 </v>
   <v type="int" >       12       11       12       14       21 </v>
   <v type="int" >       12       11       13       14       21 </v>
   <v type="int" >       12       13       14       21       23 </v>
   <v type="int" >       12       12       14       21       22 </v>
   <v type="int" >       12       14       21       22       24 </v>
   <v type="int" >       12       14       21       23       24 </v>
   <v type="int" >       12       11       12       13       22 </v>
   <v type="int" >       12       12       13       14       22 </v>
   <v type="int" >       12       13       14       22       24 </v>
   <v type="int" >       12       11       13       21       22 </v>
   <v type="int" >       12       13       21       22       23 </v>
   <v type="int" >       12       13       22       23       24 </v>
   <v type="int" >       12       10       11       11       21 </v>
   <v type="int" >       12       11       11       13       21 </v>
   <v type="int" >       12       11       13       21       23 </v>
   <v type="int" >       12       10       11       20       21 </v>
   <v type="int" >       12       11       20       21       21 </v>
   <v type="int" >       12       11       21       21       23 </v>
   <v type="int" >       12        7        8       10       20 </v>
   <v type="int" >       12        8       10       11       20 </v>
   <v type="int" >       12        8       11       20       21 </v>
   <v type="int" >       12        7        8       17       20 </v>
   <v type="int" >       12        8       17       18       20 </v>
   <v type="int" >       12        8       18       20       21 </v>
   <v type="int" >       12        3        4        7       17 </v>
   <v type="int" >       12        4        7        8       17 </v>
   <v type="int" >       12        4        8       17       18 </v>
   <v type="int" >       12       13       14       15       23 </v>
   <v type="int" >       12       14       15       23       24 </v>
   <v type="int" >       12       15       23       24       25 </v>
   <v type="int" >       12       13       14       14       24 </v>
   <v type="int" >       12       14       14       15       24 </v>
   <v type="int" >       12       14       15       24       25 </v>
   <v type="int" >       12       13       14       23       24 </v>
   <v type="int" >       12       14       23       24       24 </v>
   <v type="int" >       12       14       24       24       25 </v>
   <v type="int" >       12       11       12       13       23 </v>
   <v type="int" >       12       12       13       14       23 </v>
   <v type="int" >       12       12       14       23       24 </v>
   <v type="int" >       12       11       12       21       23 </v>
   <v type="int" >       12       12       21       22       23 </v>
   <v type="int" >       12       12       22       23       24 </v>
   <v type="int" >       12        8        9       11       21 </v>
   <v type="int" >       12        9       11       12       21 </v>
   <v type="int" >       12        9       12       21       22 </v>
   <v type="int" >       12        8        9       18       21 </v>
   <v type="int" >       12        9       18       19       21 </v>
   <v type="int" >       12        9       19       21       22 </v>
   <v type="int" >       12        4        5        8       18 </v>
   <v type="int" >       12        5        8        9       18 </v>
   <v type="int" >       12        5        9       18       19 </v>
   <v type="int" >       12       13       14       15       25 </v>
   <v type="int" >       12       13       14       24       25 </v>
   <v type="int" >       12       13       23       24       25 </v>
   <v type="int" >       12       11       12       14       24 </v>
   <v type="int" >       12       11       13       14       24 </v>
   <v type="int" >       12       11       13       23       24 </v>
   <v type="int" >       12       11       12       22       24 </v>
   <v type="int" >       12       11       21       22       24 </v>
   <v type="int" >       12       11       21       23       24 </v>
   <v type="int" >       12        8        9       12       22 </v>
   <v type="int" >       12        8       11       12       22 </v>
   <v type="int" >       12        8       11       21       22 </v>
   <v type="int" >       12        8        9       19       22 </v>
   <v type="int" >       12        8       18       19       22 </v>
   <v type="int" >       12        8       18       21       22 </v>
   <v type="int" >       12        4        5        9       19 </v>
   <v type="int" >       12        4        8        9       19 </v>
   <v type="int" >       12        4        8       18       19 </v>
   <v type="int" >       12       10       11       13       23 </v>
   <v type="int" >       12       10       11       21       23 </v>
   <v type="int" >       12       10       20       21       23 </v>
   <v type="int" >       12        7        8       11       21 </v>
   <v type="int" >       12        7       10       11       21 </v>
   <v type="int" >       12        7       10       20       21 </v>
   <v type="int" >       12        7        8       18       21 </v>
   <v type="int" >       12        7       17       18       21 </v>
   <v type="int" >       12        7       17       20       21 </v>
   <v type="int" >       12        3        4        8       18 </v>
   <v type="int" >       12        3        7        8       18 </v>
   <v type="int" >       12        3        7       17       18 </v>
   <v type="int" >       12        6        7       10       20 </v>
   <v type="int" >       12        6        7       17       20 </v>
   <v type="int" >       12        6       16       17       20 </v>
   <v type="int" >       12        2        3        7       17 </v>
   <v type="int" >       12        2        6        7       17 </v>
   <v type="int" >       12        2        6       16       17 </v>
   <v type="int" >       12        1        2        6       16 </v>
   <v type="int" >       12       16       17       17       20 </v>
   <v type="int" >       12       17       17       20       20 </v>
   <v type="int" >       12       17       20       20       26 </v>
   <v type="int" >       12       17       18       20       21 </v>
   <v type="int" >       12       17       20       20       21 </v>
   <v type="int" >       12       20       20       21       26 </v>
   <v type="int" >       12       18       20       21       21 </v>
   <v type="int" >       24       20       21       21       27 </v>
   <v type="int" >       24       20       21       26       27 </v>
   <v type="int" >       12       18       19       21       22 </v>
   <v type="int" >       12       18       21       21       22 </v>
   <v type="int" >       12       21       21       22       27 </v>
   <v type="int" >       12       19       21       22       22 </v>
   <v type="int" >       12       21       22       22       28 </v>
   <v type="int" >       12       21       22       27       28 </v>
   <v type="int" >       12       20       21       23       26 </v>
   <v type="int" >       12       21       23       26       27 </v>
   <v type="int" >       12       23       26       27       29 </v>
   <v type="int" >       12       21       22       24       27 </v>
   <v type="int" >       12       21       23       24       27 </v>
   <v type="int" >       12       23       24       27       29 </v>
   <v type="int" >       12       22       24       27       28 </v>
   <v type="int" >       12       24       27       28       30 </v>
   <v type="int" >       12       24       27       29       30 </v>
   <v type="int" >       12       21       22       23       28 </v>
   <v type="int" >       12       22       23       24       28 </v>
   <v type="int" >       12       23       24       28       30 </v>
   <v type="int" >       12       21       23       27       28 </v>
   <v type="int" >       12       23       27       28       29 </v>
   <v type="int" >       12       23       28       29       30 </v>
   <v type="int" >       12       21       21       23       27 </v>
   <v type="int" >       12       21       23       27       29 </v>
   <v type="int" >       12       21       26       27       27 </v>
   <v type="int" >       12       21       27       27       29 </v>
   <v type="int" >       12       17       18       20       26 </v>
   <v type="int" >       12       18       20       21       26 </v>
   <v type="int" >       12       18       21       26       27 </v>
   <v type="int" >       12       23       24       25       29 </v>
   <v type="int" >       12       24       25       29       30 </v>
   <v type="int" >       12       25       29       30       31 </v>
   <v type="int" >       12       23       24       24       30 </v>
   <v type="int" >       12       24       24       25       30 </v>
   <v type="int" >       12       24       25       30       31 </v>
   <v type="int" >       12       23       24       29       30 </v>
   <v type="int" >       12       24       29       30       30 </v>
   <v type="int" >       12       24       30       30       31 </v>
   <v type="int" >       12       21       22       23       29 </v>
   <v type="int" >       12       22       23       24       29 </v>
   <v type="int" >       12       22       24       29       30 </v>
   <v type="int" >       12       21       22       27       29 </v>
   <v type="int" >       12       22       27       28       29 </v>
   <v type="int" >       12       22       28       29       30 </v>
   <v type="int" >       12       18       19       21       27 </v>
   <v type="int" >       12       19       21       22       27 </v>
   <v type="int" >       12       19       22       27       28 </v>
   <v type="int" >       12       23       24       25       31 </v>
   <v type="int" >       12       23       24       30       31 </v>
   <v type="int" >       12       23       29       30       31 </v>
   <v type="int" >       12       21       22       24       30 </v>
   <v type="int" >       12       21       23       24       30 </v>
   <v type="int" >       12       21       23       29       30 </v>
   <v type="int" >       12       21       22       28       30 </v>
   <v type="int" >       12       21       27       28       30 </v>
   <v type="int" >       12       21       27       29       30 </v>
   <v type="int" >       12       18       19       22       28 </v>
   <v type="int" >       12       18       21       22       28 </v>
   <v type="int" >       12       18       21       27       28 </v>
   <v type="int" >       12       20       21       23       29 </v>
   <v type="int" >       12       20       21       27       29 </v>
   <v type="int" >       12       20       26       27       29 </v>
   <v type="int" >       12       17       18       21       27 </v>
   <v type="int" >       12       17       20       21       27 </v>
   <v type="int" >       12       17       20       26       27 </v>
   <v type="int" >       12       16       17       20       26 </v>
   <v type="int" >       12       26       27       27       29 </v>
   <v type="int" >       12       27       27       29       29 </v>
   <v type="int" >       12       27       29       29       32 </v>
   <v type="int" >       12       27       28       29       30 </v>
   <v type="int" >       12       27       29       29       30 </v>
   <v type="int" >       12       29       29       30       32 </v>
   <v type="int" >       12       28       29       30       30 </v>
   <v type="int" >       24       29       30       30       33 </v>
   <v type="int" >       24       29       30       32       33 </v>
   <v type="int" >       12       29       30       31       32 </v>
   <v type="int" >       12       30       31       32       33 </v>
   <v type="int" >       12       31       32       33       34 </v>
   <v type="int" >       12       30       30       31       33 </v>
   <v type="int" >       12       30       31       33       34 </v>
   <v type="int" >       12       30       32       33       33 </v>
   <v type="int" >       12       30       33       33       34 </v>
   <v type="int" >       12       27       28       29       32 </v>
   <v type="int" >       12       28       29       30       32 </v>
   <v type="int" >       12       28       30       32       33 </v>
   <v type="int" >       12       29       30       31       34 </v>
   <v type="int" >       12       29       30       33       34 </v>
   <v type="int" >       12       29       32       33       34 </v>
   <v type="int" >       12       27       28       30       33 </v>
   <v type="int" >       12       27       29       30       33 </v>
   <v type="int" >       12       27       29       32       33 </v>
   <v type="int" >       12       26       27       29       32 </v>
   <v type="int" >       12       32       33       33       34 </v>
   <v type="int" >       12       33       33       34       34 </v>
   <v type="int" >       12       33       34       34       35 </v>
   <v type="int" >       12       32       33       34       35 </v>
  </varray>
  <i name="volumeweight">      0.00032552 </i>
 </kpoints>
 <parameters>
  <separator name="general" >
   <i type="string" name="SYSTEM">unknown system</i>
   <i type="logical" name="LCOMPAT"> F  </i>
  </separator>
  <separator name="electronic" >
   <i type="string" name="PREC">accura</i>
   <i name="ENMAX">    500.00000000</i>
   <i name="ENAUG">    605.39200000</i>
   <i name="EDIFF">      0.00001000</i>
   <i type="int" name="IALGO">    38</i>
   <i type="int" name="IWAVPR">    10</i>
   <i type="int" name="NBANDS">    24</i>
   <i name="NELECT">     41.00000000</i>
   <i type="int" name="TURBO">     0</i>
   <i type="int" name="IRESTART">     0</i>
   <i type="int" name="NREBOOT">     0</i>
   <i type="int" name="NMIN">     0</i>
   <i name="EREF">      0.00000000</i>
   <separator name="electronic smearing" >
    <i type="int" name="ISMEAR">    -5</i>
    <i name="SIGMA">      0.20000000</i>
    <i name="KSPACING">      0.50000000</i>
    <i type="logical" name="KGAMMA"> T  </i>
   </separator>
   <separator name="electronic projectors" >
    <i type="logical" name="LREAL"> F  </i>
    <v name="ROPT">      0.00000000      0.00000000      0.00000000</v>
    <i type="int" name="LMAXPAW">  -100</i>
    <i type="int" name="LMAXMIX">     2</i>
    <i type="logical" name="NLSPLINE"> F  </i>
   </separator>
   <separator name="electronic startup" >
    <i type="int" name="ISTART">     1</i>
    <i type="int" name="ICHARG">     0</i>
    <i type="int" name="INIWAV">     1</i>
   </separator>
   <separator name="electronic spin" >
    <i type="int" name="ISPIN">     1</i>
    <i type="logical" name="LNONCOLLINEAR"> F  </i>
    <v name="MAGMOM">      1.00000000      1.00000000      1.00000000      1.00000000      1.00000000</v>
    <i name="NUPDOWN">     -1.00000000</i>
    <i type="logical" name="LSORBIT"> F  </i>
    <v name="SAXIS">      0.00000000      0.00000000      1.00000000</v>
    <i type="logical" name="LSPIRAL"> F  </i>
    <v name="QSPIRAL">      0.00000000      0.00000000      0.00000000</v>
    <i type="logical" name="LZEROZ"> F  </i>
   </separator>
   <separator name="electronic exchange-correlation" >
    <i type="logical" name="LASPH"> F  </i>
    <i type="logical" name="LMETAGGA"> F  </i>
   </separator>
   <separator name="electronic convergence" >
    <i type="int" name="NELM">    60</i>
    <i type="int" name="NELMDL">     0</i>
    <i type="int" name="NELMIN">     2</i>
    <i name="ENINI">    500.00000000</i>
    <separator name="electronic convergence detail" >
     <i type="logical" name="LDIAG"> T  </i>
     <i type="logical" name="LSUBROT"> F  </i>
     <i name="WEIMIN">      0.00000000</i>
     <i name="EBREAK">      0.00000010</i>
     <i name="DEPER">      0.30000000</i>
     <i type="int" name="NRMM">     4</i>
     <i name="TIME">      0.40000000</i>
    </separator>
   </separator>
   <separator name="electronic mixer" >
    <i name="AMIX">      0.40000000</i>
    <i name="BMIX">      1.00000000</i>
    <i name="AMIN">      0.10000000</i>
    <i name="AMIX_MAG">      1.60000000</i>
    <i name="BMIX_MAG">      1.00000000</i>
    <separator name="electronic mixer details" >
     <i type="int" name="IMIX">     4</i>
     <i type="logical" name="MIXFIRST"> F  </i>
     <i type="int" name="MAXMIX">   -45</i>
     <i name="WC">    100.00000000</i>
     <i type="int" name="INIMIX">     1</i>
     <i type="int" name="MIXPRE">     1</i>
     <i type="int" name="MREMOVE">     5</i>
    </separator>
   </separator>
   <separator name="electronic dipolcorrection" >
    <i type="logical" name="LDIPOL"> F  </i>
    <i type="logical" name="LMONO"> F  </i>
    <i type="int" name="IDIPOL">     0</i>
    <i name="EPSILON">      1.00000000</i>
    <v name="DIPOL">   -100.00000000   -100.00000000   -100.00000000</v>
    <i name="EFIELD">      0.00000000</i>
   </separator>
  </separator>
  <separator name="grids" >
   <i type="int" name="NGX">    30</i>
   <i type="int" name="NGY">    30</i>
   <i type="int" name="NGZ">    30</i>
   <i type="int" name="NGXF">    60</i>
   <i type="int" name="NGYF">    60</i>
   <i type="int" name="NGZF">    60</i>
   <i type="logical" name="ADDGRID"> F  </i>
  </separator>
  <separator name="ionic" >
   <i type="int" name="NSW">     0</i>
   <i type="int" name="IBRION">    -1</i>
   <i type="int" name="MDALGO">     0</i>
   <i type="int" name="ISIF">     2</i>
   <i name="PSTRESS">      0.00000000</i>
   <i name="EDIFFG">     -0.01000000</i>
   <i type="int" name="NFREE">     0</i>
   <i name="POTIM">      0.50000000</i>
   <i name="SMASS">     -3.00000000</i>
   <i name="SCALEE">      1.00000000</i>
  </separator>
  <separator name="ionic md" >
   <i name="TEBEG">      0.00010000</i>
   <i name="TEEND">      0.00010000</i>
   <i type="int" name="NBLOCK">     1</i>
   <i type="int" name="KBLOCK">     1</i>
   <i type="int" name="NPACO">   256</i>
   <i name="APACO">     16.00000000</i>
  </separator>
  <separator name="symmetry" >
   <i type="int" name="ISYM">     2</i>
   <i name="SYMPREC">      0.00001000</i>
  </separator>
  <separator name="dos" >
   <i type="int" name="LORBIT">     0</i>
   <v name="RWIGS">     -1.00000000     -1.00000000     -1.00000000</v>
   <i type="int" name="NEDOS">   301</i>
   <i name="EMIN">     10.00000000</i>
   <i name="EMAX">    -10.00000000</i>
   <i name="EFERMI">      0.00000000</i>
  </separator>
  <separator name="writing" >
   <i type="int" name="NWRITE">     2</i>
   <i type="logical" name="LWAVE"> T  </i>
   <i type="logical" name="LDOWNSAMPLE"> F  </i>
   <i type="logical" name="LCHARG"> T  </i>
   <i type="logical" name="LPARD"> F  </i>
   <i type="logical" name="LVTOT"> F  </i>
   <i type="logical" name="LVHAR"> F  </i>
   <i type="logical" name="LELF"> F  </i>
   <i type="logical" name="LOPTICS"> F  </i>
   <v name="STM">      0.00000000      0.00000000      0.00000000      0.00000000      0.00000000      0.00000000      0.00000000</v>
  </separator>
  <separator name="performance" >
   <i type="int" name="NPAR">     4</i>
   <i type="int" name="NSIM">     4</i>
   <i type="int" name="NBLK">    -1</i>
   <i type="logical" name="LPLANE"> T  </i>
   <i type="logical" name="LSCALAPACK"> T  </i>
   <i type="logical" name="LSCAAWARE"> F  </i>
   <i type="logical" name="LSCALU"> F  </i>
   <i type="logical" name="LASYNC"> F  </i>
   <i type="logical" name="LORBITALREAL"> F  </i>
  </separator>
  <separator name="miscellaneous" >
   <i type="int" name="IDIOT">     3</i>
   <i type="int" name="ISPECIAL">     0</i>
   <i type="logical" name="LMUSIC"> F  </i>
   <v name="POMASS">     92.91000000     16.00000000     87.62000000</v>
   <v name="DARWINR">      0.00000000      0.00000000      0.00000000</v>
   <v name="DARWINV">      1.00000000      1.00000000      1.00000000</v>
   <i type="logical" name="LCORR"> T  </i>
  </separator>
  <i type="logical" name="GGA_COMPAT"> T  </i>
  <i type="logical" name="LBERRY"> F  </i>
  <i type="int" name="ICORELEVEL">     0</i>
  <i type="logical" name="LDAU"> F  </i>
  <i type="int" name="I_CONSTRAINED_M">     0</i>
  <separator name="electronic exchange-correlation" >
   <i type="string" name="GGA">--</i>
   <i type="int" name="VOSKOWN">     0</i>
   <i type="logical" name="LHFCALC"> F  </i>
   <i type="string" name="PRECFOCK"></i>
   <i type="logical" name="LSYMGRAD"> F  </i>
   <i type="logical" name="LHFONE"> F  </i>
   <i type="logical" name="LRHFCALC"> F  </i>
   <i type="logical" name="LTHOMAS"> F  </i>
   <i type="logical" name="LMODELHF"> F  </i>
   <i name="ENCUT4O">     -1.00000000</i>
   <i type="int" name="EXXOEP">     0</i>
   <i type="int" name="FOURORBIT">     0</i>
   <i name="AEXX">      0.00000000</i>
   <i name="HFALPHA">      0.00000000</i>
   <i name="MCALPHA">      0.00000000</i>
   <i name="ALDAX">      1.00000000</i>
   <i name="AGGAX">      1.00000000</i>
   <i name="ALDAC">      1.00000000</i>
   <i name="AGGAC">      1.00000000</i>
   <i type="int" name="NKREDX">     1</i>
   <i type="int" name="NKREDY">     1</i>
   <i type="int" name="NKREDZ">     1</i>
   <i type="logical" name="SHIFTRED"> F  </i>
   <i type="logical" name="ODDONLY"> F  </i>
   <i type="logical" name="EVENONLY"> F  </i>
   <i type="int" name="LMAXFOCK">     0</i>
   <i type="int" name="NMAXFOCKAE">     0</i>
   <i type="logical" name="LFOCKAEDFT"> F  </i>
   <i name="HFSCREEN">      0.00000000</i>
   <i name="HFSCREENC">      0.00000000</i>
   <i type="int" name="NBANDSGWLOW">     0</i>
  </separator>
  <separator name="vdW DFT" >
   <i type="logical" name="LUSE_VDW"> F  </i>
   <i name="Zab_VDW">     -0.84910000</i>
   <i name="PARAM1">      0.12340000</i>
   <i name="PARAM2">      1.00000000</i>
   <i name="PARAM3">      0.00000000</i>
  </separator>
  <separator name="model GW" >
   <i type="int" name="MODEL_GW">     0</i>
   <i name="MODEL_EPS0">      8.01844850</i>
   <i name="MODEL_ALPHA">      1.00000000</i>
  </separator>
  <separator name="linear response parameters" >
   <i type="logical" name="LEPSILON"> F  </i>
   <i type="logical" name="LRPA"> F  </i>
   <i type="logical" name="LNABLA"> F  </i>
   <i type="logical" name="LVEL"> F  </i>
   <i type="int" name="KINTER">     0</i>
   <i name="CSHIFT">      0.10000000</i>
   <i name="OMEGAMAX">     -1.00000000</i>
   <i name="DEG_THRESHOLD">      0.00200000</i>
   <i name="RTIME">     -0.10000000</i>
   <i name="WPLASMAI">      0.00000000</i>
   <v name="DFIELD">      0.00000000      0.00000000      0.00000000</v>
   <v name="WPLASMA">      0.00000000      0.00000000      0.00000000      0.00000000      0.00000000      0.00000000      0.00000000      0.00000000      0.00000000</v>
  </separator>
  <separator name="orbital magnetization" >
   <i type="logical" name="NUCIND"> F  </i>
   <v name="MAGPOS">      0.00000000      0.00000000      0.00000000</v>
   <i type="logical" name="LNICSALL"> T  </i>
   <i type="logical" name="ORBITALMAG"> F  </i>
   <i type="logical" name="LMAGBLOCH"> F  </i>
   <i type="logical" name="LCHIMAG"> F  </i>
   <i type="logical" name="LGAUGE"> T  </i>
   <i type="int" name="MAGATOM">     0</i>
   <v name="MAGDIPOL">      0.00000000      0.00000000      0.00000000</v>
   <v name="AVECCONST">      0.00000000      0.00000000      0.00000000</v>
  </separator>
  <separator name="response functions" >
   <i type="logical" name="LADDER"> F  </i>
   <i type="logical" name="LRPAFORCE"> F  </i>
   <i type="logical" name="LFXC"> F  </i>
   <i type="logical" name="LHARTREE"> T  </i>
   <i type="int" name="IBSE">     0</i>
   <v type="int" name="KPOINT">    -1     0     0     0</v>
   <i type="logical" name="LTCTE"> F  </i>
   <i type="logical" name="LTETE"> F  </i>
   <i type="logical" name="LTRIPLET"> F  </i>
   <i type="logical" name="LFXCEPS"> F  </i>
   <i type="logical" name="LFXHEG"> F  </i>
   <i type="int" name="NATURALO">     2</i>
   <i type="logical" name="L2ORDER"> F  </i>
   <i type="logical" name="LMP2LT"> F  </i>
   <i type="logical" name="LUSEW"> F  </i>
   <i name="ENCUTGW">     -2.00000000</i>
   <i name="ENCUTGWSOFT">     -2.00000000</i>
   <i name="ENCUTLF">     -1.00000000</i>
   <i type="int" name="LMAXMP2">    -1</i>
   <i name="SCISSOR">      0.00000000</i>
   <i type="int" name="NOMEGA">     0</i>
   <i type="int" name="NOMEGAR">     0</i>
   <i type="int" name="NBANDSGW">    -1</i>
   <i type="int" name="NBANDSO">    -1</i>
   <i type="int" name="NBANDSV">    -1</i>
   <i type="int" name="NELM">     1</i>
   <i type="int" name="NELMHF">     1</i>
   <i type="int" name="DIM">     3</i>
   <i type="int" name="ANTIRES">     0</i>
   <i name="OMEGAMAX">    -30.00000000</i>
   <i name="OMEGAMIN">    -30.00000000</i>
   <i name="OMEGATL">   -200.00000000</i>
   <i type="int" name="OMEGAGRID">   140</i>
   <i name="CSHIFT">     -0.10000000</i>
   <i type="logical" name="SELFENERGY"> F  </i>
   <i type="logical" name="LSPECTRAL"> F  </i>
   <i type="logical" name="LSPECTRALGW"> F  </i>
   <i type="logical" name="LSINGLES"> F  </i>
   <i type="logical" name="LFERMIGW"> F  </i>
   <i type="logical" name="ODDONLYGW"> F  </i>
   <i type="logical" name="EVENONLYGW"> F  </i>
   <i type="int" name="NKREDLFX">     1</i>
   <i type="int" name="NKREDLFY">     1</i>
   <i type="int" name="NKREDLFZ">     1</i>
   <i type="int" name="MAXMEM">  2800</i>
   <i type="int" name="TELESCOPE">     0</i>
   <i type="int" name="TAUPAR">     1</i>
   <i type="int" name="OMEGAPAR">    -1</i>
   <i name="LAMBDA">      1.00000000</i>
  </separator>
  <separator name="External order field" >
   <i name="OFIELD_KAPPA">      0.00000000</i>
   <v name="OFIELD_K">      0.00000000      0.00000000      0.00000000</v>
   <i name="OFIELD_Q6_NEAR">      0.00000000</i>
   <i name="OFIELD_Q6_FAR">      0.00000000</i>
   <i name="OFIELD_A">      0.00000000</i>
  </separator>
 </parameters>
 <atominfo>
  <atoms>       5 </atoms>
  <types>       3 </types>
  <array name="atoms" >
   <dimension dim="1">ion</dimension>
   <field type="string">element</field>
   <field type="int">atomtype</field>
   <set>
    <rc><c>Nb</c><c>   1</c></rc>
    <rc><c>O </c><c>   2</c></rc>
    <rc><c>O </c><c>   2</c></rc>
    <rc><c>O </c><c>   2</c></rc>
    <rc><c>Sr</c><c>   3</c></rc>
   </set>
  </array>
  <array name="atomtypes" >
   <dimension dim="1">type</dimension>
   <field type="int">atomspertype</field>
   <field type="string">element</field>
   <field>mass</field>
   <field>valence</field>
   <field type="string">pseudopotential</field>
   <set>
    <rc><c>   1</c><c>Nb</c><c>     92.91000000</c><c>     13.00000000</c><c>  PAW_PBE Nb_sv 25May2007               </c></rc>
    <rc><c>   3</c><c>O </c><c>     16.00000000</c><c>      6.00000000</c><c>  PAW_PBE O 08Apr2002                   </c></rc>
    <rc><c>   1</c><c>Sr</c><c>     87.62000000</c><c>     10.00000000</c><c>  PAW_PBE Sr_sv 07Sep2000               </c></rc>
   </set>
  </array>
 </atominfo>
 <structure name="initialpos" >
  <crystal>
   <varray name="basis" >
    <v>       4.05791581       0.00000000       0.00000000 </v>
    <v>       0.00000000       4.05791581       0.00000000 </v>
    <v>       0.00000000       0.00000000       4.05791581 </v>
   </varray>
   <i name="volume">     66.82040414 </i>
   <varray name="rec_basis" >
    <v>       0.24643192       0.00000000       0.00000000 </v>
    <v>       0.00000000       0.24643192       0.00000000 </v>
    <v>       0.00000000       0.00000000       0.24643192 </v>
   </varray>
  </crystal>
  <varray name="positions" >
   <v>       0.50000000       0.50000000       0.50000000 </v>
   <v>       0.00000000       0.50000000       0.50000000 </v>
   <v>       0.50000000       0.00000000       0.50000000 </v>
   <v>       0.50000000       0.50000000       0.00000000 </v>
   <v>       0.00000000       0.00000000       0.00000000 </v>
  </varray>
 </structure>
 <calculation>
  <scstep>
   <time name="dav">    0.41    0.41</time>
   <time name="total">    0.46    0.48</time>
   <energy>
    <i name="alphaZ">    228.01244373 </i>
    <i name="ewald">  -2942.81487559 </i>
    <i name="hartreedc">   -815.85294698 </i>
    <i name="XCdc">    177.83831083 </i>
    <i name="pawpsdc">   4271.03930252 </i>
    <i name="pawaedc">  -4248.10360223 </i>
    <i name="eentropy">      0.00000000 </i>
    <i name="bandstr">   -406.39508261 </i>
    <i name="atom">   3695.28446512 </i>
    <i name="e_fr_energy">    -40.99198522 </i>
    <i name="e_wo_entrp">    -40.99198522 </i>
    <i name="e_0_energy">    -40.99198522 </i>
   </energy>
  </scstep>
  <scstep>
   <time name="dav">    0.41    0.41</time>
   <time name="total">    0.45    0.45</time>
   <energy>
    <i name="e_fr_energy">    -40.99200112 </i>
    <i name="e_wo_entrp">    -40.99200112 </i>
    <i name="e_0_energy">    -40.99200112 </i>
   </energy>
  </scstep>
  <scstep>
   <time name="dav">    0.32    0.32</time>
   <time name="total">    0.36    0.36</time>
   <energy>
    <i name="e_fr_energy">    -40.99201442 </i>
    <i name="e_wo_entrp">    -40.99201442 </i>
    <i name="e_0_energy">    -40.99201442 </i>
   </energy>
  </scstep>
  <scstep>
   <time name="dav">    0.31    0.32</time>
   <time name="total">    0.34    0.34</time>
   <energy>
    <i name="alphaZ">    228.01244373 </i>
    <i name="ewald">  -2942.81487559 </i>
    <i name="hartreedc">   -815.88652912 </i>
    <i name="XCdc">    177.84021548 </i>
    <i name="pawpsdc">   4263.72070418 </i>
    <i name="pawaedc">  -4240.78234352 </i>
    <i name="eentropy">      0.00000000 </i>
    <i name="bandstr">   -406.36609521 </i>
    <i name="atom">   3695.28446512 </i>
    <i name="e_fr_energy">    -40.99201493 </i>
    <i name="e_wo_entrp">    -40.99201493 </i>
    <i name="e_0_energy">    -40.99201493 </i>
   </energy>
  </scstep>
  <structure>
   <crystal>
    <varray name="basis" >
     <v>       4.05791581       0.00000000       0.00000000 </v>
     <v>       0.00000000       4.05791581       0.00000000 </v>
     <v>       0.00000000       0.00000000       4.05791581 </v>
    </varray>
    <i name="volume">     66.82040414 </i>
    <varray name="rec_basis" >
     <v>       0.24643192       0.00000000       0.00000000 </v>
     <v>       0.00000000       0.24643192       0.00000000 </v>
     <v>       0.00000000       0.00000000       0.24643192 </v>
    </varray>
   </crystal>
   <varray name="positions" >
    <v>       0.50000000       0.50000000       0.50000000 </v>
    <v>       0.00000000       0.50000000       0.50000000 </v>
    <v>       0.50000000       0.00000000       0.50000000 </v>
    <v>       0.50000000       0.50000000       0.00000000 </v>
    <v>       0.00000000       0.00000000       0.00000000 </v>
   </varray>
  </structure>
  <varray name="forces" >
   <v>       0.00000000       0.00000000       0.00000000 </v>
   <v>       0.00000000       0.00000000       0.00000000 </v>
   <v>       0.00000000       0.00000000       0.00000000 </v>
   <v>       0.00000000       0.00000000       0.00000000 </v>
   <v>       0.00000000       0.00000000       0.00000000 </v>
  </varray>
  <varray name="stress" >
   <v>       3.36154046      -0.00000000       0.00000000 </v>
   <v>       0.00000000       3.36154046       0.00000000 </v>
   <v>      -0.00000000      -0.00000000       3.36154046 </v>
  </varray>
  <energy>
   <i name="e_fr_energy">    -40.99201493 </i>
   <i name="e_wo_entrp">    -40.99201493 </i>
   <i name="e_0_energy">      0.00000000 </i>
  </energy>
  <time name="totalsc">    2.05    2.48</time>
  <eigenvalues>
   <array>
    <dimension dim="1">band</dimension>
    <dimension dim="2">kpoint</dimension>
    <dimension dim="3">spin</dimension>
    <field>eigene</field>
    <field>occ</field>
    <set>
     <set comment="spin 1">
      <set comment="kpoint 1">
       <r>  -49.1203    1.0000 </r>
       <r>  -28.9573    1.0000 </r>
       <r>  -25.2824    1.0000 </r>
       <r>  -25.2824    1.0000 </r>
       <r>  -25.2824    1.0000 </r>
       <r>  -12.8917    1.0000 </r>
       <r>  -12.3551    1.0000 </r>
       <r>  -12.3551    1.0000 </r>
       <r>  -10.9212    1.0000 </r>
       <r>  -10.9212    1.0000 </r>
       <r>  -10.9212    1.0000 </r>
       <r>    1.9251    1.0000 </r>
       <r>    1.9251    1.0000 </r>
       <r>    1.9251    1.0000 </r>
       <r>    2.9839    1.0000 </r>
       <r>    2.9839    1.0000 </r>
       <r>    2.9839    1.0000 </r>
       <r>    3.6194    1.0000 </r>
       <r>    3.6194    1.0000 </r>
       <r>    3.6194    1.0000 </r>
       <r>    6.4542    1.0000 </r>
       <r>    6.4542    1.0000 </r>
       <r>    6.4542    1.0000 </r>
       <r>    9.2974    0.0000 </r>
      </set>
      <set comment="kpoint 2">
       <r>  -49.1200    1.0000 </r>
       <r>  -28.9559    1.0000 </r>
       <r>  -25.3034    1.0000 </r>
       <r>  -25.2816    1.0000 </r>
       <r>  -25.2816    1.0000 </r>
       <r>  -12.8962    1.0000 </r>
       <r>  -12.3508    1.0000 </r>
       <r>  -12.2918    1.0000 </r>
       <r>  -10.9178    1.0000 </r>
       <r>  -10.9178    1.0000 </r>
       <r>  -10.8442    1.0000 </r>
       <r>    1.6803    1.0000 </r>
       <r>    1.8945    1.0000 </r>
       <r>    1.8945    1.0000 </r>
       <r>    2.7887    1.0000 </r>
       <r>    2.7887    1.0000 </r>
       <r>    2.8731    1.0000 </r>
       <r>    3.1261    1.0000 </r>
       <r>    3.5551    1.0000 </r>
       <r>    3.5551    1.0000 </r>
       <r>    6.4920    1.0000 </r>
       <r>    6.8603    1.0756 </r>
       <r>    6.8603    1.0869 </r>
       <r>    9.5813    0.0000 </r>
      </set>
      <set comment="kpoint 3">
       <r>  -49.1192    1.0000 </r>
       <r>  -28.9525    1.0000 </r>
       <r>  -25.3534    1.0000 </r>
       <r>  -25.2799    1.0000 </r>
       <r>  -25.2799    1.0000 </r>
       <r>  -12.9788    1.0000 </r>
       <r>  -12.3409    1.0000 </r>
       <r>  -12.0305    1.0000 </r>
       <r>  -10.9095    1.0000 </r>
       <r>  -10.9095    1.0000 </r>
       <r>  -10.6791    1.0000 </r>
       <r>    0.9351    1.0000 </r>
       <r>    1.8220    1.0000 </r>
       <r>    1.8220    1.0000 </r>
       <r>    2.3621    1.0000 </r>
       <r>    2.3794    1.0000 </r>
       <r>    2.3794    1.0000 </r>
       <r>    2.6274    1.0000 </r>
       <r>    3.4732    1.0000 </r>
       <r>    3.4732    1.0000 </r>
       <r>    6.5877    1.0000 </r>
       <r>    7.7482    0.3536 </r>
       <r>    7.7482    0.3230 </r>
       <r>   10.1015    0.0000 </r>
      </set>
      <set comment="kpoint 4">
       <r>  -49.1184    1.0000 </r>
       <r>  -28.9492    1.0000 </r>
       <r>  -25.4025    1.0000 </r>
       <r>  -25.2781    1.0000 </r>
       <r>  -25.2781    1.0000 </r>
       <r>  -13.0883    1.0000 </r>
       <r>  -12.3311    1.0000 </r>
       <r>  -11.6941    1.0000 </r>
       <r>  -10.9012    1.0000 </r>
       <r>  -10.9012    1.0000 </r>
       <r>  -10.5349    1.0000 </r>
       <r>    0.0645    1.0000 </r>
       <r>    1.7590    1.0000 </r>
       <r>    1.7590    1.0000 </r>
       <r>    1.9278    1.0000 </r>
       <r>    2.0345    1.0000 </r>
       <r>    2.0345    1.0000 </r>
       <r>    2.4060    1.0000 </r>
       <r>    3.4229    1.0000 </r>
       <r>    3.4229    1.0000 </r>
       <r>    6.6904    1.0000 </r>
       <r>    8.6157    0.0000 </r>
       <r>    8.6157    0.0000 </r>
       <r>   10.4627    0.0000 </r>
      </set>
      <set comment="kpoint 5">
       <r>  -49.1180    1.0000 </r>
       <r>  -28.9478    1.0000 </r>
       <r>  -25.4225    1.0000 </r>
       <r>  -25.2774    1.0000 </r>
       <r>  -25.2774    1.0000 </r>
       <r>  -13.1342    1.0000 </r>
       <r>  -12.3267    1.0000 </r>
       <r>  -11.5396    1.0000 </r>
       <r>  -10.8977    1.0000 </r>
       <r>  -10.8977    1.0000 </r>
       <r>  -10.4798    1.0000 </r>
       <r>   -0.3042    1.0000 </r>
       <r>    1.7462    1.0000 </r>
       <r>    1.7462    1.0000 </r>
       <r>    1.7900    1.0000 </r>
       <r>    1.8938    1.0000 </r>
       <r>    1.8938    1.0000 </r>
       <r>    2.3201    1.0000 </r>
       <r>    3.4062    1.0000 </r>
       <r>    3.4062    1.0000 </r>
       <r>    6.7353    1.0000 </r>
       <r>    8.9928    0.0000 </r>
       <r>    8.9928    0.0000 </r>
       <r>   10.4718    0.0000 </r>
      </set>
      <set comment="kpoint 6">
       <r>  -49.1196    1.0000 </r>
       <r>  -28.9544    1.0000 </r>
       <r>  -25.3034    1.0000 </r>
       <r>  -25.3021    1.0000 </r>
       <r>  -25.2809    1.0000 </r>
       <r>  -12.8763    1.0000 </r>
       <r>  -12.3052    1.0000 </r>
       <r>  -12.2901    1.0000 </r>
       <r>  -10.9141    1.0000 </r>
       <r>  -10.8829    1.0000 </r>
       <r>  -10.8074    1.0000 </r>
       <r>    1.5352    1.0000 </r>
       <r>    1.7501    1.0000 </r>
       <r>    1.8609    1.0000 </r>
       <r>    2.4078    1.0000 </r>
       <r>    2.6304    1.0000 </r>
       <r>    2.9875    1.0000 </r>
       <r>    3.0387    1.0000 </r>
       <r>    3.2302    1.0000 </r>
       <r>    3.4640    1.0000 </r>
       <r>    6.8424    1.0097 </r>
       <r>    6.9419    1.1658 </r>
       <r>    7.1454    1.0637 </r>
       <r>    9.8921    0.0000 </r>
      </set>
      <set comment="kpoint 7">
       <r>  -49.1188    1.0000 </r>
       <r>  -28.9508    1.0000 </r>
       <r>  -25.3531    1.0000 </r>
       <r>  -25.3013    1.0000 </r>
       <r>  -25.2792    1.0000 </r>
       <r>  -12.9164    1.0000 </r>
       <r>  -12.2925    1.0000 </r>
       <r>  -12.0708    1.0000 </r>
       <r>  -10.9052    1.0000 </r>
       <r>  -10.8564    1.0000 </r>
       <r>  -10.6757    1.0000 </r>
       <r>    0.9050    1.0000 </r>
       <r>    1.4460    1.0000 </r>
       <r>    1.7803    1.0000 </r>
       <r>    1.9512    1.0000 </r>
       <r>    2.2703    1.0000 </r>
       <r>    2.4991    1.0000 </r>
       <r>    2.9669    1.0000 </r>
       <r>    3.1264    1.0000 </r>
       <r>    3.3502    1.0000 </r>
       <r>    6.9695    1.0454 </r>
       <r>    7.7750    0.2432 </r>
       <r>    7.8748    0.1534 </r>
       <r>   10.3526    0.0000 </r>
      </set>
      <set comment="kpoint 8">
       <r>  -49.1180    1.0000 </r>
       <r>  -28.9472    1.0000 </r>
       <r>  -25.4025    1.0000 </r>
       <r>  -25.2999    1.0000 </r>
       <r>  -25.2774    1.0000 </r>
       <r>  -13.0049    1.0000 </r>
       <r>  -12.2788    1.0000 </r>
       <r>  -11.7687    1.0000 </r>
       <r>  -10.8962    1.0000 </r>
       <r>  -10.8306    1.0000 </r>
       <r>  -10.5509    1.0000 </r>
       <r>    0.0598    1.0000 </r>
       <r>    1.1045    1.0000 </r>
       <r>    1.7066    1.0000 </r>
       <r>    1.7774    1.0000 </r>
       <r>    1.9515    1.0000 </r>
       <r>    2.2248    1.0000 </r>
       <r>    2.8720    1.0000 </r>
       <r>    3.0396    1.0000 </r>
       <r>    3.2897    1.0000 </r>
       <r>    7.0627    1.0592 </r>
       <r>    8.6286    0.0000 </r>
       <r>    8.6737    0.0000 </r>
       <r>   10.7856    0.0000 </r>
      </set>
      <set comment="kpoint 9">
       <r>  -49.1177    1.0000 </r>
       <r>  -28.9457    1.0000 </r>
       <r>  -25.4227    1.0000 </r>
       <r>  -25.2993    1.0000 </r>
       <r>  -25.2767    1.0000 </r>
       <r>  -13.0449    1.0000 </r>
       <r>  -12.2722    1.0000 </r>
       <r>  -11.6339    1.0000 </r>
       <r>  -10.8925    1.0000 </r>
       <r>  -10.8135    1.0000 </r>
       <r>  -10.5027    1.0000 </r>
       <r>   -0.3074    1.0000 </r>
       <r>    0.9756    1.0000 </r>
       <r>    1.6859    1.0000 </r>
       <r>    1.7357    1.0000 </r>
       <r>    1.8219    1.0000 </r>
       <r>    2.1358    1.0000 </r>
       <r>    2.8199    1.0000 </r>
       <r>    3.0106    1.0000 </r>
       <r>    3.2712    1.0000 </r>
       <r>    7.1031    1.0482 </r>
       <r>    8.9981    0.0000 </r>
       <r>    9.0400    0.0000 </r>
       <r>   10.8275    0.0000 </r>
      </set>
      <set comment="kpoint 10">
       <r>  -49.1180    1.0000 </r>
       <r>  -28.9466    1.0000 </r>
       <r>  -25.3537    1.0000 </r>
       <r>  -25.3511    1.0000 </r>
       <r>  -25.2774    1.0000 </r>
       <r>  -12.8288    1.0000 </r>
       <r>  -12.1496    1.0000 </r>
       <r>  -12.1047    1.0000 </r>
       <r>  -10.8947    1.0000 </r>
       <r>  -10.7626    1.0000 </r>
       <r>  -10.6430    1.0000 </r>
       <r>    0.6906    1.0000 </r>
       <r>    0.9242    1.0000 </r>
       <r>    1.2395    1.0000 </r>
       <r>    1.6793    1.0000 </r>
       <r>    2.0005    1.0000 </r>
       <r>    2.4303    1.0000 </r>
       <r>    2.7184    1.0000 </r>
       <r>    3.1768    1.0000 </r>
       <r>    3.3602    1.0000 </r>
       <r>    7.7549    0.5089 </r>
       <r>    7.9018    0.0446 </r>
       <r>    8.3204   -0.0141 </r>
       <r>   10.7580    0.0000 </r>
      </set>
      <set comment="kpoint 11">
       <r>  -49.1172    1.0000 </r>
       <r>  -28.9425    1.0000 </r>
       <r>  -25.4026    1.0000 </r>
       <r>  -25.3517    1.0000 </r>
       <r>  -25.2757    1.0000 </r>
       <r>  -12.8210    1.0000 </r>
       <r>  -12.1438    1.0000 </r>
       <r>  -11.9019    1.0000 </r>
       <r>  -10.8842    1.0000 </r>
       <r>  -10.6976    1.0000 </r>
       <r>  -10.5735    1.0000 </r>
       <r>    0.0451    1.0000 </r>
       <r>    0.4275    1.0000 </r>
       <r>    1.0158    1.0000 </r>
       <r>    1.5810    1.0000 </r>
       <r>    1.7402    1.0000 </r>
       <r>    2.3439    1.0000 </r>
       <r>    2.6566    1.0000 </r>
       <r>    3.0859    1.0000 </r>
       <r>    3.4620    1.0000 </r>
       <r>    7.8893    0.1816 </r>
       <r>    8.6606    0.0000 </r>
       <r>    8.9475    0.0000 </r>
       <r>   11.0167    0.0000 </r>
      </set>
      <set comment="kpoint 12">
       <r>  -49.1169    1.0000 </r>
       <r>  -28.9407    1.0000 </r>
       <r>  -25.4230    1.0000 </r>
       <r>  -25.3515    1.0000 </r>
       <r>  -25.2750    1.0000 </r>
       <r>  -12.8331    1.0000 </r>
       <r>  -12.1375    1.0000 </r>
       <r>  -11.8070    1.0000 </r>
       <r>  -10.8798    1.0000 </r>
       <r>  -10.6641    1.0000 </r>
       <r>  -10.5407    1.0000 </r>
       <r>   -0.3154    1.0000 </r>
       <r>    0.2751    1.0000 </r>
       <r>    0.9931    1.0000 </r>
       <r>    1.5450    1.0000 </r>
       <r>    1.6336    1.0000 </r>
       <r>    2.3298    1.0000 </r>
       <r>    2.6277    1.0000 </r>
       <r>    3.0602    1.0000 </r>
       <r>    3.4742    1.0000 </r>
       <r>    7.9200    0.1492 </r>
       <r>    9.0109    0.0000 </r>
       <r>    9.2719    0.0000 </r>
       <r>   11.0991    0.0000 </r>
      </set>
      <set comment="kpoint 13">
       <r>  -49.1164    1.0000 </r>
       <r>  -28.9377    1.0000 </r>
       <r>  -25.4033    1.0000 </r>
       <r>  -25.4020    1.0000 </r>
       <r>  -25.2740    1.0000 </r>
       <r>  -12.6687    1.0000 </r>
       <r>  -12.0343    1.0000 </r>
       <r>  -11.9611    1.0000 </r>
       <r>  -10.8721    1.0000 </r>
       <r>  -10.5944    1.0000 </r>
       <r>  -10.5543    1.0000 </r>
       <r>   -0.0513    1.0000 </r>
       <r>   -0.0214    1.0000 </r>
       <r>    0.1827    1.0000 </r>
       <r>    1.4582    1.0000 </r>
       <r>    1.5258    1.0000 </r>
       <r>    2.4395    1.0000 </r>
       <r>    2.6043    1.0000 </r>
       <r>    2.9722    1.0000 </r>
       <r>    3.7705    1.0000 </r>
       <r>    8.6638    0.0000 </r>
       <r>    8.7162    0.0000 </r>
       <r>    9.4103    0.0000 </r>
       <r>   11.0124    0.0000 </r>
      </set>
      <set comment="kpoint 14">
       <r>  -49.1161    1.0000 </r>
       <r>  -28.9358    1.0000 </r>
       <r>  -25.4234    1.0000 </r>
       <r>  -25.4026    1.0000 </r>
       <r>  -25.2733    1.0000 </r>
       <r>  -12.6179    1.0000 </r>
       <r>  -12.0230    1.0000 </r>
       <r>  -11.9440    1.0000 </r>
       <r>  -10.8671    1.0000 </r>
       <r>  -10.5500    1.0000 </r>
       <r>  -10.5335    1.0000 </r>
       <r>   -0.3333    1.0000 </r>
       <r>   -0.1853    1.0000 </r>
       <r>    0.0880    1.0000 </r>
       <r>    1.4101    1.0000 </r>
       <r>    1.4369    1.0000 </r>
       <r>    2.5073    1.0000 </r>
       <r>    2.5759    1.0000 </r>
       <r>    2.9399    1.0000 </r>
       <r>    3.8566    1.0000 </r>
       <r>    8.7036    0.0000 </r>
       <r>    9.0240    0.0000 </r>
       <r>    9.6710    0.0000 </r>
       <r>   10.9820    0.0000 </r>
      </set>
      <set comment="kpoint 15">
       <r>  -49.1158    1.0000 </r>
       <r>  -28.9337    1.0000 </r>
       <r>  -25.4236    1.0000 </r>
       <r>  -25.4236    1.0000 </r>
       <r>  -25.2727    1.0000 </r>
       <r>  -12.5215    1.0000 </r>
       <r>  -11.9948    1.0000 </r>
       <r>  -11.9948    1.0000 </r>
       <r>  -10.8617    1.0000 </r>
       <r>  -10.5085    1.0000 </r>
       <r>  -10.5085    1.0000 </r>
       <r>   -0.4032    1.0000 </r>
       <r>   -0.3451    1.0000 </r>
       <r>   -0.2252    1.0000 </r>
       <r>    1.3558    1.0000 </r>
       <r>    1.3558    1.0000 </r>
       <r>    2.5802    1.0000 </r>
       <r>    2.5802    1.0000 </r>
       <r>    2.9054    1.0000 </r>
       <r>    3.9715    1.0000 </r>
       <r>    9.0293    0.0000 </r>
       <r>    9.0293    0.0000 </r>
       <r>    9.8897    0.0000 </r>
       <r>   10.9018    0.0000 </r>
      </set>
      <set comment="kpoint 16">
       <r>  -49.1193    1.0000 </r>
       <r>  -28.9528    1.0000 </r>
       <r>  -25.3027    1.0000 </r>
       <r>  -25.3027    1.0000 </r>
       <r>  -25.3011    1.0000 </r>
       <r>  -12.8366    1.0000 </r>
       <r>  -12.2800    1.0000 </r>
       <r>  -12.2800    1.0000 </r>
       <r>  -10.8890    1.0000 </r>
       <r>  -10.8890    1.0000 </r>
       <r>  -10.7639    1.0000 </r>
       <r>    1.3844    1.0000 </r>
       <r>    1.7178    1.0000 </r>
       <r>    1.7178    1.0000 </r>
       <r>    2.3022    1.0000 </r>
       <r>    2.3022    1.0000 </r>
       <r>    2.8486    1.0000 </r>
       <r>    3.1251    1.0000 </r>
       <r>    3.2028    1.0000 </r>
       <r>    3.2028    1.0000 </r>
       <r>    7.1257    1.0195 </r>
       <r>    7.2081    1.0766 </r>
       <r>    7.2081    0.9868 </r>
       <r>   10.0450    0.0000 </r>
      </set>
      <set comment="kpoint 17">
       <r>  -49.1185    1.0000 </r>
       <r>  -28.9491    1.0000 </r>
       <r>  -25.3528    1.0000 </r>
       <r>  -25.3008    1.0000 </r>
       <r>  -25.3005    1.0000 </r>
       <r>  -12.8422    1.0000 </r>
       <r>  -12.2548    1.0000 </r>
       <r>  -12.0936    1.0000 </r>
       <r>  -10.9044    1.0000 </r>
       <r>  -10.8353    1.0000 </r>
       <r>  -10.6607    1.0000 </r>
       <r>    0.8644    1.0000 </r>
       <r>    1.3206    1.0000 </r>
       <r>    1.5708    1.0000 </r>
       <r>    1.8597    1.0000 </r>
       <r>    1.9517    1.0000 </r>
       <r>    2.6031    1.0000 </r>
       <r>    3.0211    1.0000 </r>
       <r>    3.1132    1.0000 </r>
       <r>    3.1298    1.0000 </r>
       <r>    7.2644    0.9884 </r>
       <r>    7.9049    0.1061 </r>
       <r>    7.9157    0.0871 </r>
       <r>   10.5539    0.0000 </r>
      </set>
      <set comment="kpoint 18">
       <r>  -49.1177    1.0000 </r>
       <r>  -28.9453    1.0000 </r>
       <r>  -25.4024    1.0000 </r>
       <r>  -25.2993    1.0000 </r>
       <r>  -25.2990    1.0000 </r>
       <r>  -12.9151    1.0000 </r>
       <r>  -12.2290    1.0000 </r>
       <r>  -11.8128    1.0000 </r>
       <r>  -10.9207    1.0000 </r>
       <r>  -10.7721    1.0000 </r>
       <r>  -10.5667    1.0000 </r>
       <r>    0.0559    1.0000 </r>
       <r>    0.9621    1.0000 </r>
       <r>    1.3324    1.0000 </r>
       <r>    1.6186    1.0000 </r>
       <r>    1.8351    1.0000 </r>
       <r>    2.6060    1.0000 </r>
       <r>    2.8577    1.0000 </r>
       <r>    2.9884    1.0000 </r>
       <r>    3.0661    1.0000 </r>
       <r>    7.3589    0.8929 </r>
       <r>    8.6953    0.0000 </r>
       <r>    8.7005    0.0000 </r>
       <r>   11.0728    0.0000 </r>
      </set>
      <set comment="kpoint 19">
       <r>  -49.1174    1.0000 </r>
       <r>  -28.9437    1.0000 </r>
       <r>  -25.4227    1.0000 </r>
       <r>  -25.2989    1.0000 </r>
       <r>  -25.2983    1.0000 </r>
       <r>  -12.9509    1.0000 </r>
       <r>  -12.2179    1.0000 </r>
       <r>  -11.6857    1.0000 </r>
       <r>  -10.9277    1.0000 </r>
       <r>  -10.7381    1.0000 </r>
       <r>  -10.5305    1.0000 </r>
       <r>   -0.3095    1.0000 </r>
       <r>    0.8402    1.0000 </r>
       <r>    1.2307    1.0000 </r>
       <r>    1.5501    1.0000 </r>
       <r>    1.8111    1.0000 </r>
       <r>    2.6616    1.0000 </r>
       <r>    2.7467    1.0000 </r>
       <r>    2.9228    1.0000 </r>
       <r>    3.0437    1.0000 </r>
       <r>    7.3991    0.8420 </r>
       <r>    9.0448    0.0000 </r>
       <r>    9.0683    0.0000 </r>
       <r>   11.3059    0.0000 </r>
      </set>
      <set comment="kpoint 20">
       <r>  -49.1177    1.0000 </r>
       <r>  -28.9449    1.0000 </r>
       <r>  -25.3529    1.0000 </r>
       <r>  -25.3509    1.0000 </r>
       <r>  -25.2991    1.0000 </r>
       <r>  -12.7309    1.0000 </r>
       <r>  -12.1239    1.0000 </r>
       <r>  -12.1049    1.0000 </r>
       <r>  -10.9022    1.0000 </r>
       <r>  -10.7926    1.0000 </r>
       <r>  -10.6173    1.0000 </r>
       <r>    0.6482    1.0000 </r>
       <r>    0.9237    1.0000 </r>
       <r>    1.2550    1.0000 </r>
       <r>    1.3962    1.0000 </r>
       <r>    1.6538    1.0000 </r>
       <r>    2.3263    1.0000 </r>
       <r>    2.9863    1.0000 </r>
       <r>    2.9928    1.0000 </r>
       <r>    3.3728    1.0000 </r>
       <r>    7.9438    0.2232 </r>
       <r>    8.0348    0.0102 </r>
       <r>    8.3626   -0.0135 </r>
       <r>   10.9690    0.0000 </r>
      </set>
      <set comment="kpoint 21">
       <r>  -49.1169    1.0000 </r>
       <r>  -28.9407    1.0000 </r>
       <r>  -25.4021    1.0000 </r>
       <r>  -25.3510    1.0000 </r>
       <r>  -25.2975    1.0000 </r>
       <r>  -12.7153    1.0000 </r>
       <r>  -12.0991    1.0000 </r>
       <r>  -11.8996    1.0000 </r>
       <r>  -10.9217    1.0000 </r>
       <r>  -10.7060    1.0000 </r>
       <r>  -10.5833    1.0000 </r>
       <r>    0.0445    1.0000 </r>
       <r>    0.4439    1.0000 </r>
       <r>    1.0106    1.0000 </r>
       <r>    1.2192    1.0000 </r>
       <r>    1.4781    1.0000 </r>
       <r>    2.3489    1.0000 </r>
       <r>    2.8642    1.0000 </r>
       <r>    2.9510    1.0000 </r>
       <r>    3.4699    1.0000 </r>
       <r>    8.0694    0.0378 </r>
       <r>    8.7539    0.0000 </r>
       <r>    8.9827    0.0000 </r>
       <r>   11.3095    0.0000 </r>
      </set>
      <set comment="kpoint 22">
       <r>  -49.1166    1.0000 </r>
       <r>  -28.9389    1.0000 </r>
       <r>  -25.4227    1.0000 </r>
       <r>  -25.3507    1.0000 </r>
       <r>  -25.2968    1.0000 </r>
       <r>  -12.7267    1.0000 </r>
       <r>  -12.0833    1.0000 </r>
       <r>  -11.8023    1.0000 </r>
       <r>  -10.9325    1.0000 </r>
       <r>  -10.6446    1.0000 </r>
       <r>  -10.5821    1.0000 </r>
       <r>   -0.3149    1.0000 </r>
       <r>    0.3081    1.0000 </r>
       <r>    0.9814    1.0000 </r>
       <r>    1.1315    1.0000 </r>
       <r>    1.4356    1.0000 </r>
       <r>    2.3936    1.0000 </r>
       <r>    2.7984    1.0000 </r>
       <r>    2.9272    1.0000 </r>
       <r>    3.4816    1.0000 </r>
       <r>    8.1047    0.0236 </r>
       <r>    9.0923    0.0000 </r>
       <r>    9.3033    0.0000 </r>
       <r>   11.4948    0.0000 </r>
      </set>
      <set comment="kpoint 23">
       <r>  -49.1161    1.0000 </r>
       <r>  -28.9361    1.0000 </r>
       <r>  -25.4024    1.0000 </r>
       <r>  -25.4014    1.0000 </r>
       <r>  -25.2958    1.0000 </r>
       <r>  -12.5495    1.0000 </r>
       <r>  -11.9946    1.0000 </r>
       <r>  -11.9257    1.0000 </r>
       <r>  -10.9134    1.0000 </r>
       <r>  -10.6471    1.0000 </r>
       <r>  -10.5753    1.0000 </r>
       <r>   -0.0190    1.0000 </r>
       <r>    0.0037    1.0000 </r>
       <r>    0.2021    1.0000 </r>
       <r>    1.1634    1.0000 </r>
       <r>    1.2425    1.0000 </r>
       <r>    2.3379    1.0000 </r>
       <r>    2.8522    1.0000 </r>
       <r>    2.9238    1.0000 </r>
       <r>    3.7766    1.0000 </r>
       <r>    8.7845    0.0000 </r>
       <r>    8.8255    0.0000 </r>
       <r>    9.4490    0.0000 </r>
       <r>   11.2307    0.0000 </r>
      </set>
      <set comment="kpoint 24">
       <r>  -49.1158    1.0000 </r>
       <r>  -28.9341    1.0000 </r>
       <r>  -25.4227    1.0000 </r>
       <r>  -25.4018    1.0000 </r>
       <r>  -25.2951    1.0000 </r>
       <r>  -12.4952    1.0000 </r>
       <r>  -11.9717    1.0000 </r>
       <r>  -11.9087    1.0000 </r>
       <r>  -10.9107    1.0000 </r>
       <r>  -10.5896    1.0000 </r>
       <r>  -10.5873    1.0000 </r>
       <r>   -0.3306    1.0000 </r>
       <r>   -0.1015    1.0000 </r>
       <r>    0.0944    1.0000 </r>
       <r>    1.1125    1.0000 </r>
       <r>    1.1879    1.0000 </r>
       <r>    2.3532    1.0000 </r>
       <r>    2.8665    1.0000 </r>
       <r>    2.8983    1.0000 </r>
       <r>    3.8646    1.0000 </r>
       <r>    8.8260    0.0000 </r>
       <r>    9.1281    0.0000 </r>
       <r>    9.7139    0.0000 </r>
       <r>   11.1472    0.0000 </r>
      </set>
      <set comment="kpoint 25">
       <r>  -49.1155    1.0000 </r>
       <r>  -28.9321    1.0000 </r>
       <r>  -25.4227    1.0000 </r>
       <r>  -25.4227    1.0000 </r>
       <r>  -25.2943    1.0000 </r>
       <r>  -12.3873    1.0000 </r>
       <r>  -11.9503    1.0000 </r>
       <r>  -11.9503    1.0000 </r>
       <r>  -10.8979    1.0000 </r>
       <r>  -10.5696    1.0000 </r>
       <r>  -10.5696    1.0000 </r>
       <r>   -0.4009    1.0000 </r>
       <r>   -0.2450    1.0000 </r>
       <r>   -0.2174    1.0000 </r>
       <r>    1.1020    1.0000 </r>
       <r>    1.1020    1.0000 </r>
       <r>    2.3489    1.0000 </r>
       <r>    2.9000    1.0000 </r>
       <r>    2.9000    1.0000 </r>
       <r>    3.9823    1.0000 </r>
       <r>    9.1419    0.0000 </r>
       <r>    9.1419    0.0000 </r>
       <r>    9.9434    0.0000 </r>
       <r>   10.9888    0.0000 </r>
      </set>
      <set comment="kpoint 26">
       <r>  -49.1169    1.0000 </r>
       <r>  -28.9406    1.0000 </r>
       <r>  -25.3509    1.0000 </r>
       <r>  -25.3509    1.0000 </r>
       <r>  -25.3499    1.0000 </r>
       <r>  -12.5433    1.0000 </r>
       <r>  -12.0566    1.0000 </r>
       <r>  -12.0566    1.0000 </r>
       <r>  -10.8705    1.0000 </r>
       <r>  -10.8705    1.0000 </r>
       <r>  -10.5898    1.0000 </r>
       <r>    0.5026    1.0000 </r>
       <r>    0.9145    1.0000 </r>
       <r>    0.9145    1.0000 </r>
       <r>    1.1977    1.0000 </r>
       <r>    1.1977    1.0000 </r>
       <r>    1.5451    1.0000 </r>
       <r>    3.1660    1.0000 </r>
       <r>    3.1660    1.0000 </r>
       <r>    3.4846    1.0000 </r>
       <r>    8.4590   -0.0532 </r>
       <r>    8.4590   -0.0102 </r>
       <r>    8.4640   -0.0057 </r>
       <r>   11.0949    0.0000 </r>
      </set>
      <set comment="kpoint 27">
       <r>  -49.1161    1.0000 </r>
       <r>  -28.9363    1.0000 </r>
       <r>  -25.4011    1.0000 </r>
       <r>  -25.3496    1.0000 </r>
       <r>  -25.3489    1.0000 </r>
       <r>  -12.4715    1.0000 </r>
       <r>  -11.9787    1.0000 </r>
       <r>  -11.8937    1.0000 </r>
       <r>  -10.9588    1.0000 </r>
       <r>  -10.7694    1.0000 </r>
       <r>  -10.6024    1.0000 </r>
       <r>    0.0436    1.0000 </r>
       <r>    0.3982    1.0000 </r>
       <r>    0.8146    1.0000 </r>
       <r>    0.9591    1.0000 </r>
       <r>    0.9845    1.0000 </r>
       <r>    1.4724    1.0000 </r>
       <r>    3.1738    1.0000 </r>
       <r>    3.2944    1.0000 </r>
       <r>    3.5703    1.0000 </r>
       <r>    8.5561   -0.0225 </r>
       <r>    9.0529    0.0000 </r>
       <r>    9.0726    0.0000 </r>
       <r>   11.3678    0.0000 </r>
      </set>
      <set comment="kpoint 28">
       <r>  -49.1158    1.0000 </r>
       <r>  -28.9346    1.0000 </r>
       <r>  -25.4217    1.0000 </r>
       <r>  -25.3493    1.0000 </r>
       <r>  -25.3481    1.0000 </r>
       <r>  -12.4703    1.0000 </r>
       <r>  -11.9420    1.0000 </r>
       <r>  -11.8001    1.0000 </r>
       <r>  -10.9998    1.0000 </r>
       <r>  -10.6754    1.0000 </r>
       <r>  -10.6478    1.0000 </r>
       <r>   -0.3142    1.0000 </r>
       <r>    0.3010    1.0000 </r>
       <r>    0.7234    1.0000 </r>
       <r>    0.8999    1.0000 </r>
       <r>    0.9678    1.0000 </r>
       <r>    1.4955    1.0000 </r>
       <r>    3.1717    1.0000 </r>
       <r>    3.3245    1.0000 </r>
       <r>    3.5810    1.0000 </r>
       <r>    8.5950   -0.0216 </r>
       <r>    9.3192    0.0000 </r>
       <r>    9.4197    0.0000 </r>
       <r>   11.6252    0.0000 </r>
      </set>
      <set comment="kpoint 29">
       <r>  -49.1153    1.0000 </r>
       <r>  -28.9320    1.0000 </r>
       <r>  -25.4002    1.0000 </r>
       <r>  -25.3999    1.0000 </r>
       <r>  -25.3475    1.0000 </r>
       <r>  -12.2621    1.0000 </r>
       <r>  -11.8836    1.0000 </r>
       <r>  -11.8325    1.0000 </r>
       <r>  -10.9801    1.0000 </r>
       <r>  -10.7895    1.0000 </r>
       <r>  -10.6484    1.0000 </r>
       <r>   -0.0129    1.0000 </r>
       <r>    0.0982    1.0000 </r>
       <r>    0.2738    1.0000 </r>
       <r>    0.7276    1.0000 </r>
       <r>    0.8256    1.0000 </r>
       <r>    1.2378    1.0000 </r>
       <r>    3.3315    1.0000 </r>
       <r>    3.4065    1.0000 </r>
       <r>    3.8011    1.0000 </r>
       <r>    9.1253    0.0000 </r>
       <r>    9.1484    0.0000 </r>
       <r>    9.5321    0.0000 </r>
       <r>   11.2940    0.0000 </r>
      </set>
      <set comment="kpoint 30">
       <r>  -49.1150    1.0000 </r>
       <r>  -28.9302    1.0000 </r>
       <r>  -25.4208    1.0000 </r>
       <r>  -25.3996    1.0000 </r>
       <r>  -25.3468    1.0000 </r>
       <r>  -12.1960    1.0000 </r>
       <r>  -11.8233    1.0000 </r>
       <r>  -11.8135    1.0000 </r>
       <r>  -11.0046    1.0000 </r>
       <r>  -10.7359    1.0000 </r>
       <r>  -10.6977    1.0000 </r>
       <r>   -0.3248    1.0000 </r>
       <r>    0.0988    1.0000 </r>
       <r>    0.1057    1.0000 </r>
       <r>    0.6886    1.0000 </r>
       <r>    0.7853    1.0000 </r>
       <r>    1.2266    1.0000 </r>
       <r>    3.3752    1.0000 </r>
       <r>    3.4320    1.0000 </r>
       <r>    3.8878    1.0000 </r>
       <r>    9.1669    0.0000 </r>
       <r>    9.4230    0.0000 </r>
       <r>    9.8128    0.0000 </r>
       <r>   11.1237    0.0000 </r>
      </set>
      <set comment="kpoint 31">
       <r>  -49.1147    1.0000 </r>
       <r>  -28.9284    1.0000 </r>
       <r>  -25.4204    1.0000 </r>
       <r>  -25.4204    1.0000 </r>
       <r>  -25.3460    1.0000 </r>
       <r>  -12.0470    1.0000 </r>
       <r>  -11.8236    1.0000 </r>
       <r>  -11.8236    1.0000 </r>
       <r>  -10.9836    1.0000 </r>
       <r>  -10.7364    1.0000 </r>
       <r>  -10.7364    1.0000 </r>
       <r>   -0.3953    1.0000 </r>
       <r>   -0.2036    1.0000 </r>
       <r>   -0.0014    1.0000 </r>
       <r>    0.7138    1.0000 </r>
       <r>    0.7138    1.0000 </r>
       <r>    1.1931    1.0000 </r>
       <r>    3.4489    1.0000 </r>
       <r>    3.4489    1.0000 </r>
       <r>    4.0087    1.0000 </r>
       <r>    9.4535    0.0000 </r>
       <r>    9.4535    0.0000 </r>
       <r>   10.0651    0.0000 </r>
       <r>   10.8654    0.0000 </r>
      </set>
      <set comment="kpoint 32">
       <r>  -49.1145    1.0000 </r>
       <r>  -28.9280    1.0000 </r>
       <r>  -25.3985    1.0000 </r>
       <r>  -25.3981    1.0000 </r>
       <r>  -25.3981    1.0000 </r>
       <r>  -11.9881    1.0000 </r>
       <r>  -11.7338    1.0000 </r>
       <r>  -11.7338    1.0000 </r>
       <r>  -10.9703    1.0000 </r>
       <r>  -10.9703    1.0000 </r>
       <r>  -10.7611    1.0000 </r>
       <r>   -0.0061    1.0000 </r>
       <r>   -0.0061    1.0000 </r>
       <r>    0.2107    1.0000 </r>
       <r>    0.4743    1.0000 </r>
       <r>    0.5383    1.0000 </r>
       <r>    0.5383    1.0000 </r>
       <r>    3.6916    1.0000 </r>
       <r>    3.6916    1.0000 </r>
       <r>    3.8745    1.0000 </r>
       <r>    9.5261    0.0000 </r>
       <r>    9.6261    0.0000 </r>
       <r>    9.6261    0.0000 </r>
       <r>   11.2602    0.0000 </r>
      </set>
      <set comment="kpoint 33">
       <r>  -49.1142    1.0000 </r>
       <r>  -28.9263    1.0000 </r>
       <r>  -25.4190    1.0000 </r>
       <r>  -25.3978    1.0000 </r>
       <r>  -25.3972    1.0000 </r>
       <r>  -11.8820    1.0000 </r>
       <r>  -11.6977    1.0000 </r>
       <r>  -11.6456    1.0000 </r>
       <r>  -11.0712    1.0000 </r>
       <r>  -10.8974    1.0000 </r>
       <r>  -10.8536    1.0000 </r>
       <r>   -0.3279    1.0000 </r>
       <r>   -0.0028    1.0000 </r>
       <r>    0.2652    1.0000 </r>
       <r>    0.2935    1.0000 </r>
       <r>    0.4381    1.0000 </r>
       <r>    0.5649    1.0000 </r>
       <r>    3.7464    1.0000 </r>
       <r>    3.8173    1.0000 </r>
       <r>    3.9430    1.0000 </r>
       <r>    9.6088    0.0000 </r>
       <r>    9.7877    0.0000 </r>
       <r>    9.9548    0.0000 </r>
       <r>   10.9306    0.0000 </r>
      </set>
      <set comment="kpoint 34">
       <r>  -49.1139    1.0000 </r>
       <r>  -28.9247    1.0000 </r>
       <r>  -25.4182    1.0000 </r>
       <r>  -25.4182    1.0000 </r>
       <r>  -25.3966    1.0000 </r>
       <r>  -11.6783    1.0000 </r>
       <r>  -11.6413    1.0000 </r>
       <r>  -11.6413    1.0000 </r>
       <r>  -11.0668    1.0000 </r>
       <r>  -10.9584    1.0000 </r>
       <r>  -10.9584    1.0000 </r>
       <r>   -0.3897    1.0000 </r>
       <r>   -0.2385    1.0000 </r>
       <r>    0.2281    1.0000 </r>
       <r>    0.2458    1.0000 </r>
       <r>    0.4435    1.0000 </r>
       <r>    0.4435    1.0000 </r>
       <r>    3.8832    1.0000 </r>
       <r>    3.8832    1.0000 </r>
       <r>    4.0354    1.0000 </r>
       <r>    9.8786    0.0000 </r>
       <r>    9.8786    0.0000 </r>
       <r>   10.1740    0.0000 </r>
       <r>   10.6625    0.0000 </r>
      </set>
      <set comment="kpoint 35">
       <r>  -49.1135    1.0000 </r>
       <r>  -28.9231    1.0000 </r>
       <r>  -25.4173    1.0000 </r>
       <r>  -25.4173    1.0000 </r>
       <r>  -25.4173    1.0000 </r>
       <r>  -11.5151    1.0000 </r>
       <r>  -11.5151    1.0000 </r>
       <r>  -11.5151    1.0000 </r>
       <r>  -11.1006    1.0000 </r>
       <r>  -11.1006    1.0000 </r>
       <r>  -11.1006    1.0000 </r>
       <r>   -0.3873    1.0000 </r>
       <r>   -0.3873    1.0000 </r>
       <r>   -0.0142    1.0000 </r>
       <r>    0.3494    1.0000 </r>
       <r>    0.3494    1.0000 </r>
       <r>    0.3494    1.0000 </r>
       <r>    4.0466    1.0000 </r>
       <r>    4.0466    1.0000 </r>
       <r>    4.0466    1.0000 </r>
       <r>   10.2152    0.0000 </r>
       <r>   10.2152    0.0000 </r>
       <r>   10.2152    0.0000 </r>
       <r>   10.5764    0.0000 </r>
      </set>
     </set>
    </set>
   </array>
  </eigenvalues>
  <separator name="orbital magnetization" >
   <v name="MAGDIPOLOUT">      0.00000000      0.00000000      0.00000000</v>
  </separator>
  <dos>
   <i name="efermi">      7.70792661 </i>
   <total>
    <array>
     <dimension dim="1">gridpoints</dimension>
     <dimension dim="2">spin</dimension>
     <field>energy</field>
     <field>total</field>
     <field>integrated</field>
     <set>
      <set comment="spin 1">
       <r>   -52.1576     0.0000     0.0000 </r>
       <r>   -51.9348     0.0000     0.0000 </r>
       <r>   -51.7121     0.0000     0.0000 </r>
       <r>   -51.4894     0.0000     0.0000 </r>
       <r>   -51.2666     0.0000     0.0000 </r>
       <r>   -51.0439     0.0000     0.0000 </r>
       <r>   -50.8212     0.0000     0.0000 </r>
       <r>   -50.5984     0.0000     0.0000 </r>
       <r>   -50.3757     0.0000     0.0000 </r>
       <r>   -50.1530     0.0000     0.0000 </r>
       <r>   -49.9302     0.0000     0.0000 </r>
       <r>   -49.7075     0.0000     0.0000 </r>
       <r>   -49.4848     0.0000     0.0000 </r>
       <r>   -49.2620     0.0000     0.0000 </r>
       <r>   -49.0393     0.0000     2.0000 </r>
       <r>   -48.8166     0.0000     2.0000 </r>
       <r>   -48.5938     0.0000     2.0000 </r>
       <r>   -48.3711     0.0000     2.0000 </r>
       <r>   -48.1484     0.0000     2.0000 </r>
       <r>   -47.9256     0.0000     2.0000 </r>
       <r>   -47.7029     0.0000     2.0000 </r>
       <r>   -47.4802     0.0000     2.0000 </r>
       <r>   -47.2574     0.0000     2.0000 </r>
       <r>   -47.0347     0.0000     2.0000 </r>
       <r>   -46.8120     0.0000     2.0000 </r>
       <r>   -46.5892     0.0000     2.0000 </r>
       <r>   -46.3665     0.0000     2.0000 </r>
       <r>   -46.1438     0.0000     2.0000 </r>
       <r>   -45.9210     0.0000     2.0000 </r>
       <r>   -45.6983     0.0000     2.0000 </r>
       <r>   -45.4756     0.0000     2.0000 </r>
       <r>   -45.2528     0.0000     2.0000 </r>
       <r>   -45.0301     0.0000     2.0000 </r>
       <r>   -44.8074     0.0000     2.0000 </r>
       <r>   -44.5846     0.0000     2.0000 </r>
       <r>   -44.3619     0.0000     2.0000 </r>
       <r>   -44.1392     0.0000     2.0000 </r>
       <r>   -43.9164     0.0000     2.0000 </r>
       <r>   -43.6937     0.0000     2.0000 </r>
       <r>   -43.4710     0.0000     2.0000 </r>
       <r>   -43.2482     0.0000     2.0000 </r>
       <r>   -43.0255     0.0000     2.0000 </r>
       <r>   -42.8028     0.0000     2.0000 </r>
       <r>   -42.5800     0.0000     2.0000 </r>
       <r>   -42.3573     0.0000     2.0000 </r>
       <r>   -42.1346     0.0000     2.0000 </r>
       <r>   -41.9118     0.0000     2.0000 </r>
       <r>   -41.6891     0.0000     2.0000 </r>
       <r>   -41.4664     0.0000     2.0000 </r>
       <r>   -41.2436     0.0000     2.0000 </r>
       <r>   -41.0209     0.0000     2.0000 </r>
       <r>   -40.7982     0.0000     2.0000 </r>
       <r>   -40.5754     0.0000     2.0000 </r>
       <r>   -40.3527     0.0000     2.0000 </r>
       <r>   -40.1300     0.0000     2.0000 </r>
       <r>   -39.9072     0.0000     2.0000 </r>
       <r>   -39.6845     0.0000     2.0000 </r>
       <r>   -39.4618     0.0000     2.0000 </r>
       <r>   -39.2390     0.0000     2.0000 </r>
       <r>   -39.0163     0.0000     2.0000 </r>
       <r>   -38.7936     0.0000     2.0000 </r>
       <r>   -38.5708     0.0000     2.0000 </r>
       <r>   -38.3481     0.0000     2.0000 </r>
       <r>   -38.1254     0.0000     2.0000 </r>
       <r>   -37.9026     0.0000     2.0000 </r>
       <r>   -37.6799     0.0000     2.0000 </r>
       <r>   -37.4572     0.0000     2.0000 </r>
       <r>   -37.2344     0.0000     2.0000 </r>
       <r>   -37.0117     0.0000     2.0000 </r>
       <r>   -36.7890     0.0000     2.0000 </r>
       <r>   -36.5662     0.0000     2.0000 </r>
       <r>   -36.3435     0.0000     2.0000 </r>
       <r>   -36.1208     0.0000     2.0000 </r>
       <r>   -35.8980     0.0000     2.0000 </r>
       <r>   -35.6753     0.0000     2.0000 </r>
       <r>   -35.4526     0.0000     2.0000 </r>
       <r>   -35.2298     0.0000     2.0000 </r>
       <r>   -35.0071     0.0000     2.0000 </r>
       <r>   -34.7844     0.0000     2.0000 </r>
       <r>   -34.5616     0.0000     2.0000 </r>
       <r>   -34.3389     0.0000     2.0000 </r>
       <r>   -34.1162     0.0000     2.0000 </r>
       <r>   -33.8934     0.0000     2.0000 </r>
       <r>   -33.6707     0.0000     2.0000 </r>
       <r>   -33.4480     0.0000     2.0000 </r>
       <r>   -33.2252     0.0000     2.0000 </r>
       <r>   -33.0025     0.0000     2.0000 </r>
       <r>   -32.7798     0.0000     2.0000 </r>
       <r>   -32.5570     0.0000     2.0000 </r>
       <r>   -32.3343     0.0000     2.0000 </r>
       <r>   -32.1116     0.0000     2.0000 </r>
       <r>   -31.8888     0.0000     2.0000 </r>
       <r>   -31.6661     0.0000     2.0000 </r>
       <r>   -31.4434     0.0000     2.0000 </r>
       <r>   -31.2206     0.0000     2.0000 </r>
       <r>   -30.9979     0.0000     2.0000 </r>
       <r>   -30.7752     0.0000     2.0000 </r>
       <r>   -30.5524     0.0000     2.0000 </r>
       <r>   -30.3297     0.0000     2.0000 </r>
       <r>   -30.1070     0.0000     2.0000 </r>
       <r>   -29.8842     0.0000     2.0000 </r>
       <r>   -29.6615     0.0000     2.0000 </r>
       <r>   -29.4388     0.0000     2.0000 </r>
       <r>   -29.2160     0.0000     2.0000 </r>
       <r>   -28.9933     0.0000     2.0000 </r>
       <r>   -28.7706     0.0000     4.0000 </r>
       <r>   -28.5478     0.0000     4.0000 </r>
       <r>   -28.3251     0.0000     4.0000 </r>
       <r>   -28.1024     0.0000     4.0000 </r>
       <r>   -27.8796     0.0000     4.0000 </r>
       <r>   -27.6569     0.0000     4.0000 </r>
       <r>   -27.4342     0.0000     4.0000 </r>
       <r>   -27.2114     0.0000     4.0000 </r>
       <r>   -26.9887     0.0000     4.0000 </r>
       <r>   -26.7660     0.0000     4.0000 </r>
       <r>   -26.5432     0.0000     4.0000 </r>
       <r>   -26.3205     0.0000     4.0000 </r>
       <r>   -26.0978     0.0000     4.0000 </r>
       <r>   -25.8750     0.0000     4.0000 </r>
       <r>   -25.6523     0.0000     4.0000 </r>
       <r>   -25.4296     0.0000     4.0000 </r>
       <r>   -25.2068     0.0000    10.0000 </r>
       <r>   -24.9841     0.0000    10.0000 </r>
       <r>   -24.7614     0.0000    10.0000 </r>
       <r>   -24.5386     0.0000    10.0000 </r>
       <r>   -24.3159     0.0000    10.0000 </r>
       <r>   -24.0932     0.0000    10.0000 </r>
       <r>   -23.8704     0.0000    10.0000 </r>
       <r>   -23.6477     0.0000    10.0000 </r>
       <r>   -23.4250     0.0000    10.0000 </r>
       <r>   -23.2022     0.0000    10.0000 </r>
       <r>   -22.9795     0.0000    10.0000 </r>
       <r>   -22.7568     0.0000    10.0000 </r>
       <r>   -22.5340     0.0000    10.0000 </r>
       <r>   -22.3113     0.0000    10.0000 </r>
       <r>   -22.0886     0.0000    10.0000 </r>
       <r>   -21.8658     0.0000    10.0000 </r>
       <r>   -21.6431     0.0000    10.0000 </r>
       <r>   -21.4204     0.0000    10.0000 </r>
       <r>   -21.1976     0.0000    10.0000 </r>
       <r>   -20.9749     0.0000    10.0000 </r>
       <r>   -20.7522     0.0000    10.0000 </r>
       <r>   -20.5294     0.0000    10.0000 </r>
       <r>   -20.3067     0.0000    10.0000 </r>
       <r>   -20.0840     0.0000    10.0000 </r>
       <r>   -19.8612     0.0000    10.0000 </r>
       <r>   -19.6385     0.0000    10.0000 </r>
       <r>   -19.4158     0.0000    10.0000 </r>
       <r>   -19.1930     0.0000    10.0000 </r>
       <r>   -18.9703     0.0000    10.0000 </r>
       <r>   -18.7476     0.0000    10.0000 </r>
       <r>   -18.5248     0.0000    10.0000 </r>
       <r>   -18.3021     0.0000    10.0000 </r>
       <r>   -18.0794     0.0000    10.0000 </r>
       <r>   -17.8566     0.0000    10.0000 </r>
       <r>   -17.6339     0.0000    10.0000 </r>
       <r>   -17.4112     0.0000    10.0000 </r>
       <r>   -17.1884     0.0000    10.0000 </r>
       <r>   -16.9657     0.0000    10.0000 </r>
       <r>   -16.7430     0.0000    10.0000 </r>
       <r>   -16.5202     0.0000    10.0000 </r>
       <r>   -16.2975     0.0000    10.0000 </r>
       <r>   -16.0748     0.0000    10.0000 </r>
       <r>   -15.8520     0.0000    10.0000 </r>
       <r>   -15.6293     0.0000    10.0000 </r>
       <r>   -15.4066     0.0000    10.0000 </r>
       <r>   -15.1838     0.0000    10.0000 </r>
       <r>   -14.9611     0.0000    10.0000 </r>
       <r>   -14.7384     0.0000    10.0000 </r>
       <r>   -14.5156     0.0000    10.0000 </r>
       <r>   -14.2929     0.0000    10.0000 </r>
       <r>   -14.0702     0.0000    10.0000 </r>
       <r>   -13.8474     0.0000    10.0000 </r>
       <r>   -13.6247     0.0000    10.0000 </r>
       <r>   -13.4020     0.0000    10.0000 </r>
       <r>   -13.1792     0.0000    10.0000 </r>
       <r>   -12.9565     2.1112    10.1650 </r>
       <r>   -12.7338     2.9727    10.9695 </r>
       <r>   -12.5110     1.8140    11.4967 </r>
       <r>   -12.2883     8.5214    11.9718 </r>
       <r>   -12.0656     6.5552    13.3320 </r>
       <r>   -11.8428     8.7084    15.1349 </r>
       <r>   -11.6201     0.6451    15.9796 </r>
       <r>   -11.3974     0.0000    16.0000 </r>
       <r>   -11.1746     0.0000    16.0000 </r>
       <r>   -10.9519     7.1037    16.4314 </r>
       <r>   -10.7292    10.0391    19.4271 </r>
       <r>   -10.5064     1.1828    21.9892 </r>
       <r>   -10.2837     0.0000    22.0000 </r>
       <r>   -10.0610     0.0000    22.0000 </r>
       <r>    -9.8382     0.0000    22.0000 </r>
       <r>    -9.6155     0.0000    22.0000 </r>
       <r>    -9.3928     0.0000    22.0000 </r>
       <r>    -9.1700     0.0000    22.0000 </r>
       <r>    -8.9473     0.0000    22.0000 </r>
       <r>    -8.7246     0.0000    22.0000 </r>
       <r>    -8.5018     0.0000    22.0000 </r>
       <r>    -8.2791     0.0000    22.0000 </r>
       <r>    -8.0564     0.0000    22.0000 </r>
       <r>    -7.8336     0.0000    22.0000 </r>
       <r>    -7.6109     0.0000    22.0000 </r>
       <r>    -7.3882     0.0000    22.0000 </r>
       <r>    -7.1654     0.0000    22.0000 </r>
       <r>    -6.9427     0.0000    22.0000 </r>
       <r>    -6.7200     0.0000    22.0000 </r>
       <r>    -6.4972     0.0000    22.0000 </r>
       <r>    -6.2745     0.0000    22.0000 </r>
       <r>    -6.0518     0.0000    22.0000 </r>
       <r>    -5.8290     0.0000    22.0000 </r>
       <r>    -5.6063     0.0000    22.0000 </r>
       <r>    -5.3836     0.0000    22.0000 </r>
       <r>    -5.1608     0.0000    22.0000 </r>
       <r>    -4.9381     0.0000    22.0000 </r>
       <r>    -4.7154     0.0000    22.0000 </r>
       <r>    -4.4926     0.0000    22.0000 </r>
       <r>    -4.2699     0.0000    22.0000 </r>
       <r>    -4.0472     0.0000    22.0000 </r>
       <r>    -3.8244     0.0000    22.0000 </r>
       <r>    -3.6017     0.0000    22.0000 </r>
       <r>    -3.3790     0.0000    22.0000 </r>
       <r>    -3.1562     0.0000    22.0000 </r>
       <r>    -2.9335     0.0000    22.0000 </r>
       <r>    -2.7108     0.0000    22.0000 </r>
       <r>    -2.4880     0.0000    22.0000 </r>
       <r>    -2.2653     0.0000    22.0000 </r>
       <r>    -2.0426     0.0000    22.0000 </r>
       <r>    -1.8198     0.0000    22.0000 </r>
       <r>    -1.5971     0.0000    22.0000 </r>
       <r>    -1.3744     0.0000    22.0000 </r>
       <r>    -1.1516     0.0000    22.0000 </r>
       <r>    -0.9289     0.0000    22.0000 </r>
       <r>    -0.7062     0.0000    22.0000 </r>
       <r>    -0.4834     0.0000    22.0000 </r>
       <r>    -0.2607     3.6699    22.3408 </r>
       <r>    -0.0380     4.3418    23.2456 </r>
       <r>     0.1848     4.0117    24.2283 </r>
       <r>     0.4075     3.2009    25.0419 </r>
       <r>     0.6302     3.4104    25.7953 </r>
       <r>     0.8530     4.1132    26.6245 </r>
       <r>     1.0757     4.9829    27.6345 </r>
       <r>     1.2984     5.4241    28.7906 </r>
       <r>     1.5212     5.0839    29.9941 </r>
       <r>     1.7439     5.2778    31.1351 </r>
       <r>     1.9666     2.1359    32.0022 </r>
       <r>     2.1894     1.9068    32.4236 </r>
       <r>     2.4121     5.0756    33.2852 </r>
       <r>     2.6348     2.1495    33.8906 </r>
       <r>     2.8576     4.9718    34.7556 </r>
       <r>     3.0803     6.9238    36.5543 </r>
       <r>     3.3030     5.8217    37.8035 </r>
       <r>     3.5258     3.3529    38.8697 </r>
       <r>     3.7485     2.2187    39.4423 </r>
       <r>     3.9712     1.0334    39.9640 </r>
       <r>     4.1940     0.0000    40.0000 </r>
       <r>     4.4167     0.0000    40.0000 </r>
       <r>     4.6394     0.0000    40.0000 </r>
       <r>     4.8622     0.0000    40.0000 </r>
       <r>     5.0849     0.0000    40.0000 </r>
       <r>     5.3076     0.0000    40.0000 </r>
       <r>     5.5304     0.0000    40.0000 </r>
       <r>     5.7531     0.0000    40.0000 </r>
       <r>     5.9758     0.0000    40.0000 </r>
       <r>     6.1986     0.0000    40.0000 </r>
       <r>     6.4213     0.0000    40.0000 </r>
       <r>     6.6440     0.1972    40.0185 </r>
       <r>     6.8668     0.7272    40.1128 </r>
       <r>     7.0895     1.1120    40.3340 </r>
       <r>     7.3122     0.9822    40.5647 </r>
       <r>     7.5350     1.1157    40.7956 </r>
       <r>     7.7577     1.2869    41.0631 </r>
       <r>     7.9804     1.6936    41.4070 </r>
       <r>     8.2032     1.7659    41.7840 </r>
       <r>     8.4259     1.9459    42.1968 </r>
       <r>     8.6486     2.3322    42.6573 </r>
       <r>     8.8714     4.1242    43.4418 </r>
       <r>     9.0941     3.5190    44.3992 </r>
       <r>     9.3168     2.1707    45.0049 </r>
       <r>     9.5396     1.7174    45.4217 </r>
       <r>     9.7623     1.4645    45.7853 </r>
       <r>     9.9850     0.6122    46.0133 </r>
       <r>    10.2078     0.3048    46.1124 </r>
       <r>    10.4305     0.4430    46.1945 </r>
       <r>    10.6532     0.7730    46.3234 </r>
       <r>    10.8760     1.2893    46.5451 </r>
       <r>    11.0987     3.4017    47.0721 </r>
       <r>    11.3214     2.6603    47.7724 </r>
       <r>    11.5442     0.1635    47.9956 </r>
       <r>    11.7669     0.0000    48.0000 </r>
       <r>    11.9896     0.0000    48.0000 </r>
       <r>    12.2124     0.0000    48.0000 </r>
       <r>    12.4351     0.0000    48.0000 </r>
       <r>    12.6578     0.0000    48.0000 </r>
       <r>    12.8806     0.0000    48.0000 </r>
       <r>    13.1033     0.0000    48.0000 </r>
       <r>    13.3260     0.0000    48.0000 </r>
       <r>    13.5488     0.0000    48.0000 </r>
       <r>    13.7715     0.0000    48.0000 </r>
       <r>    13.9942     0.0000    48.0000 </r>
       <r>    14.2170     0.0000    48.0000 </r>
       <r>    14.4397     0.0000    48.0000 </r>
       <r>    14.6624     0.0000    48.0000 </r>
      </set>
     </set>
    </array>
   </total>
  </dos>
 </calculation>
 <structure name="finalpos" >
  <crystal>
   <varray name="basis" >
    <v>       4.05791581       0.00000000       0.00000000 </v>
    <v>       0.00000000       4.05791581       0.00000000 </v>
    <v>       0.00000000       0.00000000       4.05791581 </v>
   </varray>
   <i name="volume">     66.82040414 </i>
   <varray name="rec_basis" >
    <v>       0.24643192       0.00000000       0.00000000 </v>
    <v>       0.00000000       0.24643192       0.00000000 </v>
    <v>       0.00000000       0.00000000       0.24643192 </v>
   </varray>
  </crystal>
  <varray name="positions" >
   <v>       0.50000000       0.50000000       0.50000000 </v>
   <v>       0.00000000       0.50000000       0.50000000 </v>
   <v>       0.50000000       0.00000000       0.50000000 </v>
   <v>       0.50000000       0.50000000       0.00000000 </v>
   <v>       0.00000000       0.00000000       0.00000000 </v>
  </varray>
 </structure>
</modeling>
