       N       E                     dE             d eps       ncg     rms          rms(c)
DAV:   1     0.131522839438E+04    0.13152E+04   -0.64062E+04  3648   0.163E+03
DAV:   2     0.176606418232E+02   -0.12976E+04   -0.12459E+04  4408   0.521E+02
DAV:   3    -0.133737850606E+03   -0.15140E+03   -0.14931E+03  4940   0.174E+02
DAV:   4    -0.145275969923E+03   -0.11538E+02   -0.11461E+02  6456   0.475E+01
DAV:   5    -0.145790073589E+03   -0.51410E+00   -0.50999E+00  5728   0.731E+00    0.370E+01
DAV:   6    -0.122629169133E+03    0.23161E+02   -0.13523E+02  5128   0.519E+01    0.233E+01
DAV:   7    -0.123415246595E+03   -0.78608E+00   -0.37393E+01  5304   0.264E+01    0.163E+01
DAV:   8    -0.122295248438E+03    0.11200E+01   -0.31729E+00  6168   0.113E+01    0.967E+00
DAV:   9    -0.122430273511E+03   -0.13503E+00   -0.11908E+00  5624   0.470E+00    0.271E+00
DAV:  10    -0.122349358201E+03    0.80915E-01   -0.92916E-01  5072   0.427E+00    0.104E+00
DAV:  11    -0.122339257747E+03    0.10100E-01   -0.11738E-01  5320   0.168E+00    0.570E-01
DAV:  12    -0.122343873174E+03   -0.46154E-02   -0.43182E-02  5256   0.106E+00    0.523E-01
DAV:  13    -0.122339652382E+03    0.42208E-02   -0.80190E-03  5272   0.505E-01    0.160E-01
DAV:  14    -0.122339608257E+03    0.44125E-04   -0.93966E-04  6048   0.137E-01    0.111E-01
DAV:  15    -0.122339511639E+03    0.96618E-04   -0.25074E-04  4808   0.893E-02    0.554E-02
DAV:  16    -0.122339513615E+03   -0.19762E-05   -0.24766E-04  5504   0.755E-02    0.243E-02
DAV:  17    -0.122339511670E+03    0.19454E-05   -0.34250E-05  3840   0.280E-02
   1 F= -.12233951E+03 E0= -.12233951E+03  d E =0.000000E+00
