<?xml version="1.0" encoding="ISO-8859-1"?>
<modeling>
 <generator>
  <i name="program" type="string">vasp </i>
  <i name="version" type="string">5.4.4.18Apr17-6-g9f103f2a35  </i>
  <i name="subversion" type="string">(build Oct 23 2017 21:22:35) complex            parallel </i>
  <i name="platform" type="string">LinuxIFC </i>
  <i name="date" type="string">2017 12 27 </i>
  <i name="time" type="string">08:28:37 </i>
 </generator>
 <incar>
  <i type="string" name="PREC">accurate</i>
  <i type="int" name="IBRION">    -1</i>
  <i name="EDIFF">      0.00001000</i>
  <i name="EDIFFG">     -0.01000000</i>
  <i type="int" name="ISIF">     2</i>
  <i name="ENCUT">    500.00000000</i>
  <i type="int" name="ISMEAR">    -5</i>
  <v type="int" name="KPOINT_BSE">    -1     0     0     0</v>
 </incar>
 <structure name="primitive_cell" >
  <crystal>
   <varray name="basis" >
    <v>       0.00000000       4.02308639      -8.04226390 </v>
    <v>       0.00000000      -8.04226390       4.02308639 </v>
    <v>      -4.02682642       0.00000000       0.00000000 </v>
   </varray>
   <i name="volume">    195.27202580 </i>
   <varray name="rec_basis" >
    <v>       0.00000000      -0.08296258      -0.16584455 </v>
    <v>       0.00000000      -0.16584455      -0.08296258 </v>
    <v>      -0.24833452       0.00000000       0.00000000 </v>
   </varray>
  </crystal>
  <varray name="positions" >
   <v>       0.16606271      -0.16606271      -0.50000000 </v>
   <v>       0.16535691      -0.16535691       0.00000000 </v>
   <v>       0.00000000      -0.50000000      -0.50000000 </v>
   <v>      -0.50000000       0.00000000      -0.50000000 </v>
   <v>      -0.16985180      -0.33548832      -0.50000000 </v>
   <v>       0.33548832       0.16985180      -0.50000000 </v>
   <v>       0.00000000       0.00000000       0.00000000 </v>
   <v>      -0.34088737       0.34088737       0.00000000 </v>
   <v>       0.34088737      -0.34088737       0.00000000 </v>
   <v>      -0.50000000      -0.50000000      -0.50000000 </v>
   <v>      -0.16606271       0.16606271      -0.50000000 </v>
   <v>      -0.33548832      -0.16985180      -0.50000000 </v>
   <v>       0.16985180       0.33548832      -0.50000000 </v>
   <v>      -0.50000000      -0.50000000       0.00000000 </v>
   <v>      -0.16535691       0.16535691       0.00000000 </v>
  </varray>
 </structure>
 <varray name="primitive_index" >
  <v type="int" >        1 </v>
  <v type="int" >        3 </v>
  <v type="int" >        4 </v>
  <v type="int" >        8 </v>
  <v type="int" >        5 </v>
  <v type="int" >       10 </v>
  <v type="int" >       14 </v>
  <v type="int" >       12 </v>
  <v type="int" >       13 </v>
  <v type="int" >       15 </v>
  <v type="int" >        2 </v>
  <v type="int" >        7 </v>
  <v type="int" >       11 </v>
  <v type="int" >        9 </v>
  <v type="int" >        6 </v>
 </varray>
 <kpoints>
  <generation param="Gamma">
   <v type="int" name="divisions">       4        4        9 </v>
   <v name="usershift">      0.00000000       0.00000000       0.00000000 </v>
   <v name="genvec1">      0.25000000      -0.00000000       0.00000000 </v>
   <v name="genvec2">     -0.00000000       0.25000000       0.00000000 </v>
   <v name="genvec3">      0.00000000       0.00000000       0.11111111 </v>
   <v name="shift">      0.00000000       0.00000000       0.00000000 </v>
  </generation>
  <varray name="kpointlist" >
   <v>       0.00000000       0.00000000       0.00000000 </v>
   <v>       0.25000000       0.00000000       0.00000000 </v>
   <v>       0.50000000       0.00000000       0.00000000 </v>
   <v>       0.25000000       0.25000000       0.00000000 </v>
   <v>       0.50000000       0.25000000       0.00000000 </v>
   <v>      -0.25000000       0.25000000       0.00000000 </v>
   <v>       0.50000000       0.50000000       0.00000000 </v>
   <v>       0.00000000       0.00000000       0.11111111 </v>
   <v>       0.25000000       0.00000000       0.11111111 </v>
   <v>       0.50000000       0.00000000       0.11111111 </v>
   <v>       0.25000000       0.25000000       0.11111111 </v>
   <v>       0.50000000       0.25000000       0.11111111 </v>
   <v>      -0.25000000       0.25000000       0.11111111 </v>
   <v>       0.50000000       0.50000000       0.11111111 </v>
   <v>       0.00000000       0.00000000       0.22222222 </v>
   <v>       0.25000000       0.00000000       0.22222222 </v>
   <v>       0.50000000       0.00000000       0.22222222 </v>
   <v>       0.25000000       0.25000000       0.22222222 </v>
   <v>       0.50000000       0.25000000       0.22222222 </v>
   <v>      -0.25000000       0.25000000       0.22222222 </v>
   <v>       0.50000000       0.50000000       0.22222222 </v>
   <v>       0.00000000       0.00000000       0.33333333 </v>
   <v>       0.25000000       0.00000000       0.33333333 </v>
   <v>       0.50000000       0.00000000       0.33333333 </v>
   <v>       0.25000000       0.25000000       0.33333333 </v>
   <v>       0.50000000       0.25000000       0.33333333 </v>
   <v>      -0.25000000       0.25000000       0.33333333 </v>
   <v>       0.50000000       0.50000000       0.33333333 </v>
   <v>       0.00000000       0.00000000       0.44444444 </v>
   <v>       0.25000000       0.00000000       0.44444444 </v>
   <v>       0.50000000       0.00000000       0.44444444 </v>
   <v>       0.25000000       0.25000000       0.44444444 </v>
   <v>       0.50000000       0.25000000       0.44444444 </v>
   <v>      -0.25000000       0.25000000       0.44444444 </v>
   <v>       0.50000000       0.50000000       0.44444444 </v>
  </varray>
  <varray name="weights" >
   <v>       0.00694444 </v>
   <v>       0.02777778 </v>
   <v>       0.01388889 </v>
   <v>       0.01388889 </v>
   <v>       0.02777778 </v>
   <v>       0.01388889 </v>
   <v>       0.00694444 </v>
   <v>       0.01388889 </v>
   <v>       0.05555556 </v>
   <v>       0.02777778 </v>
   <v>       0.02777778 </v>
   <v>       0.05555556 </v>
   <v>       0.02777778 </v>
   <v>       0.01388889 </v>
   <v>       0.01388889 </v>
   <v>       0.05555556 </v>
   <v>       0.02777778 </v>
   <v>       0.02777778 </v>
   <v>       0.05555556 </v>
   <v>       0.02777778 </v>
   <v>       0.01388889 </v>
   <v>       0.01388889 </v>
   <v>       0.05555556 </v>
   <v>       0.02777778 </v>
   <v>       0.02777778 </v>
   <v>       0.05555556 </v>
   <v>       0.02777778 </v>
   <v>       0.01388889 </v>
   <v>       0.01388889 </v>
   <v>       0.05555556 </v>
   <v>       0.02777778 </v>
   <v>       0.02777778 </v>
   <v>       0.05555556 </v>
   <v>       0.02777778 </v>
   <v>       0.01388889 </v>
  </varray>
  <varray name="tetrahedronlist"  type="int" >
   <v type="int" >        4        2        2        4        9 </v>
   <v type="int" >        4        1        2        2        9 </v>
   <v type="int" >        4        1        2        8        9 </v>
   <v type="int" >        4        2        4        9       11 </v>
   <v type="int" >        4        2        9        9       11 </v>
   <v type="int" >        4        2        8        9        9 </v>
   <v type="int" >        4        3        4        5       11 </v>
   <v type="int" >        4        2        3        4       11 </v>
   <v type="int" >        4        2        3        9       11 </v>
   <v type="int" >        4        3        5       11       12 </v>
   <v type="int" >        4        3       10       11       12 </v>
   <v type="int" >        4        3        9       10       11 </v>
   <v type="int" >        4        2        5        6       12 </v>
   <v type="int" >        4        2        3        5       12 </v>
   <v type="int" >        4        2        3       10       12 </v>
   <v type="int" >        4        2        6       12       13 </v>
   <v type="int" >        4        2        9       12       13 </v>
   <v type="int" >        4        2        9       10       12 </v>
   <v type="int" >        4        1        2        6       13 </v>
   <v type="int" >        4        1        2        9       13 </v>
   <v type="int" >        4        1        8        9       13 </v>
   <v type="int" >        4        3        4        5       10 </v>
   <v type="int" >        4        2        3        4       10 </v>
   <v type="int" >        4        2        4        9       10 </v>
   <v type="int" >        4        4        5       10       12 </v>
   <v type="int" >        4        4       10       11       12 </v>
   <v type="int" >        4        4        9       10       11 </v>
   <v type="int" >        4        5        5        7       12 </v>
   <v type="int" >        4        4        5        5       12 </v>
   <v type="int" >        4        4        5       11       12 </v>
   <v type="int" >        4        5        7       12       14 </v>
   <v type="int" >        4        5       12       12       14 </v>
   <v type="int" >        4        5       11       12       12 </v>
   <v type="int" >        4        5        6        7       14 </v>
   <v type="int" >        4        5        6       12       14 </v>
   <v type="int" >        4        6       12       13       14 </v>
   <v type="int" >        4        2        5        6        9 </v>
   <v type="int" >        4        2        3        5        9 </v>
   <v type="int" >        4        3        5        9       10 </v>
   <v type="int" >        4        5        6        9       13 </v>
   <v type="int" >        4        5        9       12       13 </v>
   <v type="int" >        4        5        9       10       12 </v>
   <v type="int" >        4        5        6        7       13 </v>
   <v type="int" >        4        5        7       12       13 </v>
   <v type="int" >        4        7       12       13       14 </v>
   <v type="int" >        4        1        2        6        8 </v>
   <v type="int" >        4        2        6        8        9 </v>
   <v type="int" >        4        6        8        9       13 </v>
   <v type="int" >        4        9        9       11       16 </v>
   <v type="int" >        4        8        9        9       16 </v>
   <v type="int" >        4        8        9       15       16 </v>
   <v type="int" >        4        9       11       16       18 </v>
   <v type="int" >        4        9       16       16       18 </v>
   <v type="int" >        4        9       15       16       16 </v>
   <v type="int" >        4       10       11       12       18 </v>
   <v type="int" >        4        9       10       11       18 </v>
   <v type="int" >        4        9       10       16       18 </v>
   <v type="int" >        4       10       12       18       19 </v>
   <v type="int" >        4       10       17       18       19 </v>
   <v type="int" >        4       10       16       17       18 </v>
   <v type="int" >        4        9       12       13       19 </v>
   <v type="int" >        4        9       10       12       19 </v>
   <v type="int" >        4        9       10       17       19 </v>
   <v type="int" >        4        9       13       19       20 </v>
   <v type="int" >        4        9       16       19       20 </v>
   <v type="int" >        4        9       16       17       19 </v>
   <v type="int" >        4        8        9       13       20 </v>
   <v type="int" >        4        8        9       16       20 </v>
   <v type="int" >        4        8       15       16       20 </v>
   <v type="int" >        4       10       11       12       17 </v>
   <v type="int" >        4        9       10       11       17 </v>
   <v type="int" >        4        9       11       16       17 </v>
   <v type="int" >        4       11       12       17       19 </v>
   <v type="int" >        4       11       17       18       19 </v>
   <v type="int" >        4       11       16       17       18 </v>
   <v type="int" >        4       12       12       14       19 </v>
   <v type="int" >        4       11       12       12       19 </v>
   <v type="int" >        4       11       12       18       19 </v>
   <v type="int" >        4       12       14       19       21 </v>
   <v type="int" >        4       12       19       19       21 </v>
   <v type="int" >        4       12       18       19       19 </v>
   <v type="int" >        4       12       13       14       21 </v>
   <v type="int" >        4       12       13       19       21 </v>
   <v type="int" >        4       13       19       20       21 </v>
   <v type="int" >        4        9       12       13       16 </v>
   <v type="int" >        4        9       10       12       16 </v>
   <v type="int" >        4       10       12       16       17 </v>
   <v type="int" >        4       12       13       16       20 </v>
   <v type="int" >        4       12       16       19       20 </v>
   <v type="int" >        4       12       16       17       19 </v>
   <v type="int" >        4       12       13       14       20 </v>
   <v type="int" >        4       12       14       19       20 </v>
   <v type="int" >        4       14       19       20       21 </v>
   <v type="int" >        4        8        9       13       15 </v>
   <v type="int" >        4        9       13       15       16 </v>
   <v type="int" >        4       13       15       16       20 </v>
   <v type="int" >        4       16       16       18       23 </v>
   <v type="int" >        4       15       16       16       23 </v>
   <v type="int" >        4       15       16       22       23 </v>
   <v type="int" >        4       16       18       23       25 </v>
   <v type="int" >        4       16       23       23       25 </v>
   <v type="int" >        4       16       22       23       23 </v>
   <v type="int" >        4       17       18       19       25 </v>
   <v type="int" >        4       16       17       18       25 </v>
   <v type="int" >        4       16       17       23       25 </v>
   <v type="int" >        4       17       19       25       26 </v>
   <v type="int" >        4       17       24       25       26 </v>
   <v type="int" >        4       17       23       24       25 </v>
   <v type="int" >        4       16       19       20       26 </v>
   <v type="int" >        4       16       17       19       26 </v>
   <v type="int" >        4       16       17       24       26 </v>
   <v type="int" >        4       16       20       26       27 </v>
   <v type="int" >        4       16       23       26       27 </v>
   <v type="int" >        4       16       23       24       26 </v>
   <v type="int" >        4       15       16       20       27 </v>
   <v type="int" >        4       15       16       23       27 </v>
   <v type="int" >        4       15       22       23       27 </v>
   <v type="int" >        4       17       18       19       24 </v>
   <v type="int" >        4       16       17       18       24 </v>
   <v type="int" >        4       16       18       23       24 </v>
   <v type="int" >        4       18       19       24       26 </v>
   <v type="int" >        4       18       24       25       26 </v>
   <v type="int" >        4       18       23       24       25 </v>
   <v type="int" >        4       19       19       21       26 </v>
   <v type="int" >        4       18       19       19       26 </v>
   <v type="int" >        4       18       19       25       26 </v>
   <v type="int" >        4       19       21       26       28 </v>
   <v type="int" >        4       19       26       26       28 </v>
   <v type="int" >        4       19       25       26       26 </v>
   <v type="int" >        4       19       20       21       28 </v>
   <v type="int" >        4       19       20       26       28 </v>
   <v type="int" >        4       20       26       27       28 </v>
   <v type="int" >        4       16       19       20       23 </v>
   <v type="int" >        4       16       17       19       23 </v>
   <v type="int" >        4       17       19       23       24 </v>
   <v type="int" >        4       19       20       23       27 </v>
   <v type="int" >        4       19       23       26       27 </v>
   <v type="int" >        4       19       23       24       26 </v>
   <v type="int" >        4       19       20       21       27 </v>
   <v type="int" >        4       19       21       26       27 </v>
   <v type="int" >        4       21       26       27       28 </v>
   <v type="int" >        4       15       16       20       22 </v>
   <v type="int" >        4       16       20       22       23 </v>
   <v type="int" >        4       20       22       23       27 </v>
   <v type="int" >        4       23       23       25       30 </v>
   <v type="int" >        4       22       23       23       30 </v>
   <v type="int" >        4       22       23       29       30 </v>
   <v type="int" >        4       23       25       30       32 </v>
   <v type="int" >        4       23       30       30       32 </v>
   <v type="int" >        4       23       29       30       30 </v>
   <v type="int" >        4       24       25       26       32 </v>
   <v type="int" >        4       23       24       25       32 </v>
   <v type="int" >        4       23       24       30       32 </v>
   <v type="int" >        4       24       26       32       33 </v>
   <v type="int" >        4       24       31       32       33 </v>
   <v type="int" >        4       24       30       31       32 </v>
   <v type="int" >        4       23       26       27       33 </v>
   <v type="int" >        4       23       24       26       33 </v>
   <v type="int" >        4       23       24       31       33 </v>
   <v type="int" >        4       23       27       33       34 </v>
   <v type="int" >        4       23       30       33       34 </v>
   <v type="int" >        4       23       30       31       33 </v>
   <v type="int" >        4       22       23       27       34 </v>
   <v type="int" >        4       22       23       30       34 </v>
   <v type="int" >        4       22       29       30       34 </v>
   <v type="int" >        4       24       25       26       31 </v>
   <v type="int" >        4       23       24       25       31 </v>
   <v type="int" >        4       23       25       30       31 </v>
   <v type="int" >        4       25       26       31       33 </v>
   <v type="int" >        4       25       31       32       33 </v>
   <v type="int" >        4       25       30       31       32 </v>
   <v type="int" >        4       26       26       28       33 </v>
   <v type="int" >        4       25       26       26       33 </v>
   <v type="int" >        4       25       26       32       33 </v>
   <v type="int" >        4       26       28       33       35 </v>
   <v type="int" >        4       26       33       33       35 </v>
   <v type="int" >        4       26       32       33       33 </v>
   <v type="int" >        4       26       27       28       35 </v>
   <v type="int" >        4       26       27       33       35 </v>
   <v type="int" >        4       27       33       34       35 </v>
   <v type="int" >        4       23       26       27       30 </v>
   <v type="int" >        4       23       24       26       30 </v>
   <v type="int" >        4       24       26       30       31 </v>
   <v type="int" >        4       26       27       30       34 </v>
   <v type="int" >        4       26       30       33       34 </v>
   <v type="int" >        4       26       30       31       33 </v>
   <v type="int" >        4       26       27       28       34 </v>
   <v type="int" >        4       26       28       33       34 </v>
   <v type="int" >        4       28       33       34       35 </v>
   <v type="int" >        4       22       23       27       29 </v>
   <v type="int" >        4       23       27       29       30 </v>
   <v type="int" >        4       27       29       30       34 </v>
   <v type="int" >        4       30       30       30       32 </v>
   <v type="int" >        4       29       30       30       30 </v>
   <v type="int" >        2       29       29       30       30 </v>
   <v type="int" >        2       30       30       32       32 </v>
   <v type="int" >        4       31       32       32       33 </v>
   <v type="int" >        4       30       31       32       32 </v>
   <v type="int" >        4       30       30       31       32 </v>
   <v type="int" >        4       31       32       33       33 </v>
   <v type="int" >        4       31       31       32       33 </v>
   <v type="int" >        4       30       31       31       32 </v>
   <v type="int" >        4       30       33       33       34 </v>
   <v type="int" >        4       30       31       33       33 </v>
   <v type="int" >        4       30       31       31       33 </v>
   <v type="int" >        4       30       33       34       34 </v>
   <v type="int" >        4       30       30       33       34 </v>
   <v type="int" >        4       30       30       31       33 </v>
   <v type="int" >        4       29       30       34       34 </v>
   <v type="int" >        4       29       30       30       34 </v>
   <v type="int" >        4       29       29       30       34 </v>
   <v type="int" >        4       33       33       33       35 </v>
   <v type="int" >        4       32       33       33       33 </v>
   <v type="int" >        2       32       32       33       33 </v>
   <v type="int" >        2       33       33       35       35 </v>
   <v type="int" >        4       33       34       35       35 </v>
   <v type="int" >        4       33       33       34       35 </v>
   <v type="int" >        4       33       34       34       35 </v>
  </varray>
  <i name="volumeweight">      0.00115741 </i>
 </kpoints>
 <parameters>
  <separator name="general" >
   <i type="string" name="SYSTEM">unknown system</i>
   <i type="logical" name="LCOMPAT"> F  </i>
  </separator>
  <separator name="electronic" >
   <i type="string" name="PREC">accura</i>
   <i name="ENMAX">    500.00000000</i>
   <i name="ENAUG">    605.39200000</i>
   <i name="EDIFF">      0.00001000</i>
   <i type="int" name="IALGO">    38</i>
   <i type="int" name="IWAVPR">    10</i>
   <i type="int" name="NBANDS">    76</i>
   <i name="NELECT">    122.00000000</i>
   <i type="int" name="TURBO">     0</i>
   <i type="int" name="IRESTART">     0</i>
   <i type="int" name="NREBOOT">     0</i>
   <i type="int" name="NMIN">     0</i>
   <i name="EREF">      0.00000000</i>
   <separator name="electronic smearing" >
    <i type="int" name="ISMEAR">    -5</i>
    <i name="SIGMA">      0.20000000</i>
    <i name="KSPACING">      0.50000000</i>
    <i type="logical" name="KGAMMA"> T  </i>
   </separator>
   <separator name="electronic projectors" >
    <i type="logical" name="LREAL"> F  </i>
    <v name="ROPT">      0.00000000      0.00000000      0.00000000      0.00000000</v>
    <i type="int" name="LMAXPAW">  -100</i>
    <i type="int" name="LMAXMIX">     2</i>
    <i type="logical" name="NLSPLINE"> F  </i>
   </separator>
   <separator name="electronic startup" >
    <i type="int" name="ISTART">     0</i>
    <i type="int" name="ICHARG">     2</i>
    <i type="int" name="INIWAV">     1</i>
   </separator>
   <separator name="electronic spin" >
    <i type="int" name="ISPIN">     1</i>
    <i type="logical" name="LNONCOLLINEAR"> F  </i>
    <v name="MAGMOM">      1.00000000      1.00000000      1.00000000      1.00000000      1.00000000      1.00000000      1.00000000      1.00000000      1.00000000      1.00000000      1.00000000      1.00000000      1.00000000      1.00000000      1.00000000</v>
    <i name="NUPDOWN">     -1.00000000</i>
    <i type="logical" name="LSORBIT"> F  </i>
    <v name="SAXIS">      0.00000000      0.00000000      1.00000000</v>
    <i type="logical" name="LSPIRAL"> F  </i>
    <v name="QSPIRAL">      0.00000000      0.00000000      0.00000000</v>
    <i type="logical" name="LZEROZ"> F  </i>
   </separator>
   <separator name="electronic exchange-correlation" >
    <i type="logical" name="LASPH"> F  </i>
    <i type="logical" name="LMETAGGA"> F  </i>
   </separator>
   <separator name="electronic convergence" >
    <i type="int" name="NELM">    60</i>
    <i type="int" name="NELMDL">     0</i>
    <i type="int" name="NELMIN">     2</i>
    <i name="ENINI">    500.00000000</i>
    <separator name="electronic convergence detail" >
     <i type="logical" name="LDIAG"> T  </i>
     <i type="logical" name="LSUBROT"> F  </i>
     <i name="WEIMIN">      0.00000000</i>
     <i name="EBREAK">      0.00000003</i>
     <i name="DEPER">      0.30000000</i>
     <i type="int" name="NRMM">     4</i>
     <i name="TIME">      0.40000000</i>
    </separator>
   </separator>
   <separator name="electronic mixer" >
    <i name="AMIX">      0.40000000</i>
    <i name="BMIX">      1.00000000</i>
    <i name="AMIN">      0.10000000</i>
    <i name="AMIX_MAG">      1.60000000</i>
    <i name="BMIX_MAG">      1.00000000</i>
    <separator name="electronic mixer details" >
     <i type="int" name="IMIX">     4</i>
     <i type="logical" name="MIXFIRST"> F  </i>
     <i type="int" name="MAXMIX">   -45</i>
     <i name="WC">    100.00000000</i>
     <i type="int" name="INIMIX">     1</i>
     <i type="int" name="MIXPRE">     1</i>
     <i type="int" name="MREMOVE">     5</i>
    </separator>
   </separator>
   <separator name="electronic dipolcorrection" >
    <i type="logical" name="LDIPOL"> F  </i>
    <i type="logical" name="LMONO"> F  </i>
    <i type="int" name="IDIPOL">     0</i>
    <i name="EPSILON">      1.00000000</i>
    <v name="DIPOL">   -100.00000000   -100.00000000   -100.00000000</v>
    <i name="EFIELD">      0.00000000</i>
   </separator>
  </separator>
  <separator name="grids" >
   <i type="int" name="NGX">    70</i>
   <i type="int" name="NGY">    70</i>
   <i type="int" name="NGZ">    30</i>
   <i type="int" name="NGXF">   140</i>
   <i type="int" name="NGYF">   140</i>
   <i type="int" name="NGZF">    60</i>
   <i type="logical" name="ADDGRID"> F  </i>
  </separator>
  <separator name="ionic" >
   <i type="int" name="NSW">     0</i>
   <i type="int" name="IBRION">    -1</i>
   <i type="int" name="MDALGO">     0</i>
   <i type="int" name="ISIF">     2</i>
   <i name="PSTRESS">      0.00000000</i>
   <i name="EDIFFG">     -0.01000000</i>
   <i type="int" name="NFREE">     0</i>
   <i name="POTIM">      0.50000000</i>
   <i name="SMASS">     -3.00000000</i>
   <i name="SCALEE">      1.00000000</i>
  </separator>
  <separator name="ionic md" >
   <i name="TEBEG">      0.00010000</i>
   <i name="TEEND">      0.00010000</i>
   <i type="int" name="NBLOCK">     1</i>
   <i type="int" name="KBLOCK">     1</i>
   <i type="int" name="NPACO">   256</i>
   <i name="APACO">     16.00000000</i>
  </separator>
  <separator name="symmetry" >
   <i type="int" name="ISYM">     2</i>
   <i name="SYMPREC">      0.00001000</i>
  </separator>
  <separator name="dos" >
   <i type="int" name="LORBIT">     0</i>
   <v name="RWIGS">     -1.00000000     -1.00000000     -1.00000000     -1.00000000</v>
   <i type="int" name="NEDOS">   301</i>
   <i name="EMIN">     10.00000000</i>
   <i name="EMAX">    -10.00000000</i>
   <i name="EFERMI">      0.00000000</i>
  </separator>
  <separator name="writing" >
   <i type="int" name="NWRITE">     2</i>
   <i type="logical" name="LWAVE"> T  </i>
   <i type="logical" name="LDOWNSAMPLE"> F  </i>
   <i type="logical" name="LCHARG"> T  </i>
   <i type="logical" name="LPARD"> F  </i>
   <i type="logical" name="LVTOT"> F  </i>
   <i type="logical" name="LVHAR"> F  </i>
   <i type="logical" name="LELF"> F  </i>
   <i type="logical" name="LOPTICS"> F  </i>
   <v name="STM">      0.00000000      0.00000000      0.00000000      0.00000000      0.00000000      0.00000000      0.00000000</v>
  </separator>
  <separator name="performance" >
   <i type="int" name="NPAR">     4</i>
   <i type="int" name="NSIM">     4</i>
   <i type="int" name="NBLK">    -1</i>
   <i type="logical" name="LPLANE"> T  </i>
   <i type="logical" name="LSCALAPACK"> T  </i>
   <i type="logical" name="LSCAAWARE"> F  </i>
   <i type="logical" name="LSCALU"> F  </i>
   <i type="logical" name="LASYNC"> F  </i>
   <i type="logical" name="LORBITALREAL"> F  </i>
  </separator>
  <separator name="miscellaneous" >
   <i type="int" name="IDIOT">     3</i>
   <i type="int" name="ISPECIAL">     0</i>
   <i type="logical" name="LMUSIC"> F  </i>
   <v name="POMASS">     92.91000000     16.00000000     87.62000000     47.88000000</v>
   <v name="DARWINR">      0.00000000      0.00000000      0.00000000      0.00000000</v>
   <v name="DARWINV">      1.00000000      1.00000000      1.00000000      1.00000000</v>
   <i type="logical" name="LCORR"> T  </i>
  </separator>
  <i type="logical" name="GGA_COMPAT"> T  </i>
  <i type="logical" name="LBERRY"> F  </i>
  <i type="int" name="ICORELEVEL">     0</i>
  <i type="logical" name="LDAU"> F  </i>
  <i type="int" name="I_CONSTRAINED_M">     0</i>
  <separator name="electronic exchange-correlation" >
   <i type="string" name="GGA">--</i>
   <i type="int" name="VOSKOWN">     0</i>
   <i type="logical" name="LHFCALC"> F  </i>
   <i type="string" name="PRECFOCK"></i>
   <i type="logical" name="LSYMGRAD"> F  </i>
   <i type="logical" name="LHFONE"> F  </i>
   <i type="logical" name="LRHFCALC"> F  </i>
   <i type="logical" name="LTHOMAS"> F  </i>
   <i type="logical" name="LMODELHF"> F  </i>
   <i name="ENCUT4O">     -1.00000000</i>
   <i type="int" name="EXXOEP">     0</i>
   <i type="int" name="FOURORBIT">     0</i>
   <i name="AEXX">      0.00000000</i>
   <i name="HFALPHA">      0.00000000</i>
   <i name="MCALPHA">      0.00000000</i>
   <i name="ALDAX">      1.00000000</i>
   <i name="AGGAX">      1.00000000</i>
   <i name="ALDAC">      1.00000000</i>
   <i name="AGGAC">      1.00000000</i>
   <i type="int" name="NKREDX">     1</i>
   <i type="int" name="NKREDY">     1</i>
   <i type="int" name="NKREDZ">     1</i>
   <i type="logical" name="SHIFTRED"> F  </i>
   <i type="logical" name="ODDONLY"> F  </i>
   <i type="logical" name="EVENONLY"> F  </i>
   <i type="int" name="LMAXFOCK">     0</i>
   <i type="int" name="NMAXFOCKAE">     0</i>
   <i type="logical" name="LFOCKAEDFT"> F  </i>
   <i name="HFSCREEN">      0.00000000</i>
   <i name="HFSCREENC">      0.00000000</i>
   <i type="int" name="NBANDSGWLOW">     0</i>
  </separator>
  <separator name="vdW DFT" >
   <i type="logical" name="LUSE_VDW"> F  </i>
   <i name="Zab_VDW">     -0.84910000</i>
   <i name="PARAM1">      0.12340000</i>
   <i name="PARAM2">      1.00000000</i>
   <i name="PARAM3">      0.00000000</i>
  </separator>
  <separator name="model GW" >
   <i type="int" name="MODEL_GW">     0</i>
   <i name="MODEL_EPS0">      7.81088103</i>
   <i name="MODEL_ALPHA">      1.00000000</i>
  </separator>
  <separator name="linear response parameters" >
   <i type="logical" name="LEPSILON"> F  </i>
   <i type="logical" name="LRPA"> F  </i>
   <i type="logical" name="LNABLA"> F  </i>
   <i type="logical" name="LVEL"> F  </i>
   <i type="int" name="KINTER">     0</i>
   <i name="CSHIFT">      0.10000000</i>
   <i name="OMEGAMAX">     -1.00000000</i>
   <i name="DEG_THRESHOLD">      0.00200000</i>
   <i name="RTIME">     -0.10000000</i>
   <i name="WPLASMAI">      0.00000000</i>
   <v name="DFIELD">      0.00000000      0.00000000      0.00000000</v>
   <v name="WPLASMA">      0.00000000      0.00000000      0.00000000      0.00000000      0.00000000      0.00000000      0.00000000      0.00000000      0.00000000</v>
  </separator>
  <separator name="orbital magnetization" >
   <i type="logical" name="NUCIND"> F  </i>
   <v name="MAGPOS">      0.00000000      0.00000000      0.00000000</v>
   <i type="logical" name="LNICSALL"> T  </i>
   <i type="logical" name="ORBITALMAG"> F  </i>
   <i type="logical" name="LMAGBLOCH"> F  </i>
   <i type="logical" name="LCHIMAG"> F  </i>
   <i type="logical" name="LGAUGE"> T  </i>
   <i type="int" name="MAGATOM">     0</i>
   <v name="MAGDIPOL">      0.00000000      0.00000000      0.00000000</v>
   <v name="AVECCONST">      0.00000000      0.00000000      0.00000000</v>
  </separator>
  <separator name="response functions" >
   <i type="logical" name="LADDER"> F  </i>
   <i type="logical" name="LRPAFORCE"> F  </i>
   <i type="logical" name="LFXC"> F  </i>
   <i type="logical" name="LHARTREE"> T  </i>
   <i type="int" name="IBSE">     0</i>
   <v type="int" name="KPOINT">    -1     0     0     0</v>
   <i type="logical" name="LTCTE"> F  </i>
   <i type="logical" name="LTETE"> F  </i>
   <i type="logical" name="LTRIPLET"> F  </i>
   <i type="logical" name="LFXCEPS"> F  </i>
   <i type="logical" name="LFXHEG"> F  </i>
   <i type="int" name="NATURALO">     2</i>
   <i type="logical" name="L2ORDER"> F  </i>
   <i type="logical" name="LMP2LT"> F  </i>
   <i type="logical" name="LUSEW"> F  </i>
   <i name="ENCUTGW">     -2.00000000</i>
   <i name="ENCUTGWSOFT">     -2.00000000</i>
   <i name="ENCUTLF">     -1.00000000</i>
   <i type="int" name="LMAXMP2">    -1</i>
   <i name="SCISSOR">      0.00000000</i>
   <i type="int" name="NOMEGA">     0</i>
   <i type="int" name="NOMEGAR">     0</i>
   <i type="int" name="NBANDSGW">    -1</i>
   <i type="int" name="NBANDSO">    -1</i>
   <i type="int" name="NBANDSV">    -1</i>
   <i type="int" name="NELM">     1</i>
   <i type="int" name="NELMHF">     1</i>
   <i type="int" name="DIM">     3</i>
   <i type="int" name="ANTIRES">     0</i>
   <i name="OMEGAMAX">    -30.00000000</i>
   <i name="OMEGAMIN">    -30.00000000</i>
   <i name="OMEGATL">   -200.00000000</i>
   <i type="int" name="OMEGAGRID">   140</i>
   <i name="CSHIFT">     -0.10000000</i>
   <i type="logical" name="SELFENERGY"> F  </i>
   <i type="logical" name="LSPECTRAL"> F  </i>
   <i type="logical" name="LSPECTRALGW"> F  </i>
   <i type="logical" name="LSINGLES"> F  </i>
   <i type="logical" name="LFERMIGW"> F  </i>
   <i type="logical" name="ODDONLYGW"> F  </i>
   <i type="logical" name="EVENONLYGW"> F  </i>
   <i type="int" name="NKREDLFX">     1</i>
   <i type="int" name="NKREDLFY">     1</i>
   <i type="int" name="NKREDLFZ">     1</i>
   <i type="int" name="MAXMEM">  2800</i>
   <i type="int" name="TELESCOPE">     0</i>
   <i type="int" name="TAUPAR">     1</i>
   <i type="int" name="OMEGAPAR">    -1</i>
   <i name="LAMBDA">      1.00000000</i>
  </separator>
  <separator name="External order field" >
   <i name="OFIELD_KAPPA">      0.00000000</i>
   <v name="OFIELD_K">      0.00000000      0.00000000      0.00000000</v>
   <i name="OFIELD_Q6_NEAR">      0.00000000</i>
   <i name="OFIELD_Q6_FAR">      0.00000000</i>
   <i name="OFIELD_A">      0.00000000</i>
  </separator>
 </parameters>
 <atominfo>
  <atoms>      15 </atoms>
  <types>       4 </types>
  <array name="atoms" >
   <dimension dim="1">ion</dimension>
   <field type="string">element</field>
   <field type="int">atomtype</field>
   <set>
    <rc><c>Nb</c><c>   1</c></rc>
    <rc><c>Nb</c><c>   1</c></rc>
    <rc><c>O </c><c>   2</c></rc>
    <rc><c>O </c><c>   2</c></rc>
    <rc><c>O </c><c>   2</c></rc>
    <rc><c>O </c><c>   2</c></rc>
    <rc><c>O </c><c>   2</c></rc>
    <rc><c>O </c><c>   2</c></rc>
    <rc><c>O </c><c>   2</c></rc>
    <rc><c>O </c><c>   2</c></rc>
    <rc><c>O </c><c>   2</c></rc>
    <rc><c>Sr</c><c>   3</c></rc>
    <rc><c>Sr</c><c>   3</c></rc>
    <rc><c>Sr</c><c>   3</c></rc>
    <rc><c>Ti</c><c>   4</c></rc>
   </set>
  </array>
  <array name="atomtypes" >
   <dimension dim="1">type</dimension>
   <field type="int">atomspertype</field>
   <field type="string">element</field>
   <field>mass</field>
   <field>valence</field>
   <field type="string">pseudopotential</field>
   <set>
    <rc><c>   2</c><c>Nb</c><c>     92.91000000</c><c>     13.00000000</c><c>  PAW_PBE Nb_sv 25May2007               </c></rc>
    <rc><c>   9</c><c>O </c><c>     16.00000000</c><c>      6.00000000</c><c>  PAW_PBE O 08Apr2002                   </c></rc>
    <rc><c>   3</c><c>Sr</c><c>     87.62000000</c><c>     10.00000000</c><c>  PAW_PBE Sr_sv 07Sep2000               </c></rc>
    <rc><c>   1</c><c>Ti</c><c>     47.88000000</c><c>     12.00000000</c><c>  PAW_PBE Ti_sv 26Sep2005               </c></rc>
   </set>
  </array>
 </atominfo>
 <structure name="initialpos" >
  <crystal>
   <varray name="basis" >
    <v>       0.00000000       4.02308639      -8.04226390 </v>
    <v>       0.00000000      -8.04226390       4.02308639 </v>
    <v>      -4.02682642       0.00000000       0.00000000 </v>
   </varray>
   <i name="volume">    195.27202580 </i>
   <varray name="rec_basis" >
    <v>       0.00000000      -0.08296258      -0.16584455 </v>
    <v>       0.00000000      -0.16584455      -0.08296258 </v>
    <v>      -0.24833452       0.00000000       0.00000000 </v>
   </varray>
  </crystal>
  <varray name="positions" >
   <v>       0.16606271       0.83393729       0.50000000 </v>
   <v>       0.83393729       0.16606271       0.50000000 </v>
   <v>       0.16535691       0.83464309       0.00000000 </v>
   <v>       0.00000000       0.50000000       0.50000000 </v>
   <v>       0.83014820       0.66451168       0.50000000 </v>
   <v>       0.83464309       0.16535691       0.00000000 </v>
   <v>       0.66451168       0.83014820       0.50000000 </v>
   <v>       0.50000000       0.00000000       0.50000000 </v>
   <v>       0.50000000       0.50000000       0.00000000 </v>
   <v>       0.33548832       0.16985180       0.50000000 </v>
   <v>       0.16985180       0.33548832       0.50000000 </v>
   <v>       0.65911263       0.34088737       0.00000000 </v>
   <v>       0.34088737       0.65911263       0.00000000 </v>
   <v>       0.00000000       0.00000000       0.00000000 </v>
   <v>       0.50000000       0.50000000       0.50000000 </v>
  </varray>
 </structure>
 <calculation>
  <scstep>
   <time name="dav">    2.25    2.25</time>
   <time name="total">    2.32    2.33</time>
   <energy>
    <i name="alphaZ">    676.63396122 </i>
    <i name="ewald">  -8736.91369512 </i>
    <i name="hartreedc">  -2493.35202457 </i>
    <i name="XCdc">    533.62249774 </i>
    <i name="pawpsdc">   8744.62432914 </i>
    <i name="pawaedc">  -8661.14482049 </i>
    <i name="eentropy">      0.00000000 </i>
    <i name="bandstr">    119.81321116 </i>
    <i name="atom">  11118.75352351 </i>
    <i name="e_fr_energy">   1302.03698258 </i>
    <i name="e_wo_entrp">   1302.03698258 </i>
    <i name="e_0_energy">   1302.03698258 </i>
   </energy>
  </scstep>
  <scstep>
   <time name="dav">    2.58    2.58</time>
   <time name="total">    2.60    2.61</time>
   <energy>
    <i name="e_fr_energy">     13.75257760 </i>
    <i name="e_wo_entrp">     13.75257760 </i>
    <i name="e_0_energy">     13.75257760 </i>
   </energy>
  </scstep>
  <scstep>
   <time name="dav">    2.77    2.78</time>
   <time name="total">    2.80    2.81</time>
   <energy>
    <i name="e_fr_energy">   -133.95026179 </i>
    <i name="e_wo_entrp">   -133.95026179 </i>
    <i name="e_0_energy">   -133.95026179 </i>
   </energy>
  </scstep>
  <scstep>
   <time name="dav">    3.44    3.44</time>
   <time name="total">    3.47    3.47</time>
   <energy>
    <i name="e_fr_energy">   -145.44603163 </i>
    <i name="e_wo_entrp">   -145.44603163 </i>
    <i name="e_0_energy">   -145.44603163 </i>
   </energy>
  </scstep>
  <scstep>
   <time name="dav">    3.08    3.09</time>
   <time name="total">    3.26    3.26</time>
   <energy>
    <i name="e_fr_energy">   -145.95708437 </i>
    <i name="e_wo_entrp">   -145.95708437 </i>
    <i name="e_0_energy">   -145.95708437 </i>
   </energy>
  </scstep>
  <scstep>
   <time name="dav">    2.89    2.90</time>
   <time name="total">    3.11    3.12</time>
   <energy>
    <i name="e_fr_energy">   -122.98719421 </i>
    <i name="e_wo_entrp">   -122.98719421 </i>
    <i name="e_0_energy">   -122.98719421 </i>
   </energy>
  </scstep>
  <scstep>
   <time name="dav">    2.99    2.99</time>
   <time name="total">    3.21    3.21</time>
   <energy>
    <i name="e_fr_energy">   -123.86580525 </i>
    <i name="e_wo_entrp">   -123.86580525 </i>
    <i name="e_0_energy">   -123.86580525 </i>
   </energy>
  </scstep>
  <scstep>
   <time name="dav">    3.17    3.17</time>
   <time name="total">    3.39    3.39</time>
   <energy>
    <i name="e_fr_energy">   -122.29646326 </i>
    <i name="e_wo_entrp">   -122.29646326 </i>
    <i name="e_0_energy">   -122.29646326 </i>
   </energy>
  </scstep>
  <scstep>
   <time name="dav">    3.19    3.20</time>
   <time name="total">    3.41    3.42</time>
   <energy>
    <i name="e_fr_energy">   -122.95332516 </i>
    <i name="e_wo_entrp">   -122.95332516 </i>
    <i name="e_0_energy">   -122.95332516 </i>
   </energy>
  </scstep>
  <scstep>
   <time name="dav">    2.90    2.90</time>
   <time name="total">    3.12    3.12</time>
   <energy>
    <i name="e_fr_energy">   -122.34576837 </i>
    <i name="e_wo_entrp">   -122.34576837 </i>
    <i name="e_0_energy">   -122.34576837 </i>
   </energy>
  </scstep>
  <scstep>
   <time name="dav">    2.95    2.95</time>
   <time name="total">    3.17    3.18</time>
   <energy>
    <i name="e_fr_energy">   -122.30565354 </i>
    <i name="e_wo_entrp">   -122.30565354 </i>
    <i name="e_0_energy">   -122.30565354 </i>
   </energy>
  </scstep>
  <scstep>
   <time name="dav">    2.93    2.94</time>
   <time name="total">    3.15    3.16</time>
   <energy>
    <i name="e_fr_energy">   -122.31633912 </i>
    <i name="e_wo_entrp">   -122.31633912 </i>
    <i name="e_0_energy">   -122.31633912 </i>
   </energy>
  </scstep>
  <scstep>
   <time name="dav">    2.80    2.81</time>
   <time name="total">    3.02    3.02</time>
   <energy>
    <i name="e_fr_energy">   -122.30455501 </i>
    <i name="e_wo_entrp">   -122.30455501 </i>
    <i name="e_0_energy">   -122.30455501 </i>
   </energy>
  </scstep>
  <scstep>
   <time name="dav">    3.21    3.22</time>
   <time name="total">    3.43    3.44</time>
   <energy>
    <i name="e_fr_energy">   -122.30497106 </i>
    <i name="e_wo_entrp">   -122.30497106 </i>
    <i name="e_0_energy">   -122.30497106 </i>
   </energy>
  </scstep>
  <scstep>
   <time name="dav">    3.03    3.04</time>
   <time name="total">    3.25    3.26</time>
   <energy>
    <i name="e_fr_energy">   -122.30488984 </i>
    <i name="e_wo_entrp">   -122.30488984 </i>
    <i name="e_0_energy">   -122.30488984 </i>
   </energy>
  </scstep>
  <scstep>
   <time name="dav">    2.67    2.68</time>
   <time name="total">    2.89    2.90</time>
   <energy>
    <i name="e_fr_energy">   -122.30481715 </i>
    <i name="e_wo_entrp">   -122.30481715 </i>
    <i name="e_0_energy">   -122.30481715 </i>
   </energy>
  </scstep>
  <scstep>
   <time name="dav">    2.08    2.08</time>
   <time name="total">    2.29    2.30</time>
   <energy>
    <i name="e_fr_energy">   -122.30488347 </i>
    <i name="e_wo_entrp">   -122.30488347 </i>
    <i name="e_0_energy">   -122.30488347 </i>
   </energy>
  </scstep>
  <scstep>
   <time name="dav">    1.88    1.89</time>
   <time name="total">    2.10    2.11</time>
   <energy>
    <i name="e_fr_energy">   -122.30486829 </i>
    <i name="e_wo_entrp">   -122.30486829 </i>
    <i name="e_0_energy">   -122.30486829 </i>
   </energy>
  </scstep>
  <scstep>
   <time name="dav">    1.86    1.86</time>
   <time name="total">    1.93    1.93</time>
   <energy>
    <i name="alphaZ">    676.63396122 </i>
    <i name="ewald">  -8736.91369512 </i>
    <i name="hartreedc">  -2529.43519851 </i>
    <i name="XCdc">    538.39710920 </i>
    <i name="pawpsdc">  13261.70112829 </i>
    <i name="pawaedc"> -13190.77140403 </i>
    <i name="eentropy">      0.00000000 </i>
    <i name="bandstr">  -1260.67030195 </i>
    <i name="atom">  11118.75352351 </i>
    <i name="e_fr_energy">   -122.30487740 </i>
    <i name="e_wo_entrp">   -122.30487740 </i>
    <i name="e_0_energy">   -122.30487740 </i>
   </energy>
  </scstep>
  <structure>
   <crystal>
    <varray name="basis" >
     <v>       0.00000000       4.02308639      -8.04226390 </v>
     <v>       0.00000000      -8.04226390       4.02308639 </v>
     <v>      -4.02682642       0.00000000       0.00000000 </v>
    </varray>
    <i name="volume">    195.27202580 </i>
    <varray name="rec_basis" >
     <v>       0.00000000      -0.08296258      -0.16584455 </v>
     <v>       0.00000000      -0.16584455      -0.08296258 </v>
     <v>      -0.24833452       0.00000000       0.00000000 </v>
    </varray>
   </crystal>
   <varray name="positions" >
    <v>       0.16606271       0.83393729       0.50000000 </v>
    <v>       0.83393729       0.16606271       0.50000000 </v>
    <v>       0.16535691       0.83464309       0.00000000 </v>
    <v>       0.00000000       0.50000000       0.50000000 </v>
    <v>       0.83014820       0.66451168       0.50000000 </v>
    <v>       0.83464309       0.16535691       0.00000000 </v>
    <v>       0.66451168       0.83014820       0.50000000 </v>
    <v>       0.50000000       0.00000000       0.50000000 </v>
    <v>       0.50000000       0.50000000       0.00000000 </v>
    <v>       0.33548832       0.16985180       0.50000000 </v>
    <v>       0.16985180       0.33548832       0.50000000 </v>
    <v>       0.65911263       0.34088737       0.00000000 </v>
    <v>       0.34088737       0.65911263       0.00000000 </v>
    <v>       0.00000000       0.00000000       0.00000000 </v>
    <v>       0.50000000       0.50000000       0.50000000 </v>
   </varray>
  </structure>
  <varray name="forces" >
   <v>       0.00000000       0.00773461      -0.00773461 </v>
   <v>       0.00000000      -0.00773461       0.00773461 </v>
   <v>      -0.00000000      -0.00039482       0.00039482 </v>
   <v>       0.00000000       0.00000000       0.00000000 </v>
   <v>       0.00000000       0.00240121      -0.00865881 </v>
   <v>       0.00000000       0.00039482      -0.00039482 </v>
   <v>       0.00000000      -0.00865881       0.00240121 </v>
   <v>       0.00000000      -0.00000000       0.00000000 </v>
   <v>       0.00000000       0.00000000       0.00000000 </v>
   <v>       0.00000000       0.00865881      -0.00240121 </v>
   <v>       0.00000000      -0.00240121       0.00865881 </v>
   <v>       0.00000000       0.00496121      -0.00496121 </v>
   <v>       0.00000000      -0.00496121       0.00496121 </v>
   <v>       0.00000000       0.00000000       0.00000000 </v>
   <v>       0.00000000      -0.00000000       0.00000000 </v>
  </varray>
  <varray name="stress" >
   <v>       0.98360966       0.00000000       0.00000000 </v>
   <v>       0.00000000       1.42373002      -0.35391887 </v>
   <v>       0.00000000      -0.35391887       1.42373002 </v>
  </varray>
  <energy>
   <i name="e_fr_energy">   -122.30487740 </i>
   <i name="e_wo_entrp">   -122.30487740 </i>
   <i name="e_0_energy">      0.00000000 </i>
  </energy>
  <time name="totalsc">   59.28   64.10</time>
  <eigenvalues>
   <array>
    <dimension dim="1">band</dimension>
    <dimension dim="2">kpoint</dimension>
    <dimension dim="3">spin</dimension>
    <field>eigene</field>
    <field>occ</field>
    <set>
     <set comment="spin 1">
      <set comment="kpoint 1">
       <r>  -51.3457    1.0000 </r>
       <r>  -49.6736    1.0000 </r>
       <r>  -49.6712    1.0000 </r>
       <r>  -28.9693    1.0000 </r>
       <r>  -28.9616    1.0000 </r>
       <r>  -28.8837    1.0000 </r>
       <r>  -27.6376    1.0000 </r>
       <r>  -27.6319    1.0000 </r>
       <r>  -27.6036    1.0000 </r>
       <r>  -25.9339    1.0000 </r>
       <r>  -25.9267    1.0000 </r>
       <r>  -25.8615    1.0000 </r>
       <r>  -25.8547    1.0000 </r>
       <r>  -25.8282    1.0000 </r>
       <r>  -25.8232    1.0000 </r>
       <r>  -13.1505    1.0000 </r>
       <r>  -13.0899    1.0000 </r>
       <r>  -12.7891    1.0000 </r>
       <r>  -12.4922    1.0000 </r>
       <r>  -12.4825    1.0000 </r>
       <r>  -12.2694    1.0000 </r>
       <r>  -12.2139    1.0000 </r>
       <r>  -12.1238    1.0000 </r>
       <r>  -11.7084    1.0000 </r>
       <r>  -10.9357    1.0000 </r>
       <r>  -10.9198    1.0000 </r>
       <r>  -10.9147    1.0000 </r>
       <r>  -10.9073    1.0000 </r>
       <r>  -10.8263    1.0000 </r>
       <r>  -10.6787    1.0000 </r>
       <r>  -10.5899    1.0000 </r>
       <r>  -10.5845    1.0000 </r>
       <r>  -10.5171    1.0000 </r>
       <r>   -0.1449    1.0000 </r>
       <r>   -0.1269    1.0000 </r>
       <r>    0.1877    1.0000 </r>
       <r>    0.2306    1.0000 </r>
       <r>    0.5671    1.0000 </r>
       <r>    0.6627    1.0000 </r>
       <r>    1.2404    1.0000 </r>
       <r>    1.4166    1.0000 </r>
       <r>    1.5559    1.0000 </r>
       <r>    1.6614    1.0000 </r>
       <r>    1.6632    1.0000 </r>
       <r>    1.6744    1.0000 </r>
       <r>    1.7238    1.0000 </r>
       <r>    2.0677    1.0000 </r>
       <r>    2.2949    1.0000 </r>
       <r>    2.4440    1.0000 </r>
       <r>    2.5582    1.0000 </r>
       <r>    2.7704    1.0000 </r>
       <r>    2.8281    1.0000 </r>
       <r>    2.9059    1.0000 </r>
       <r>    2.9680    1.0000 </r>
       <r>    3.0759    1.0000 </r>
       <r>    3.5138    1.0000 </r>
       <r>    3.6510    1.0000 </r>
       <r>    3.6730    1.0000 </r>
       <r>    3.6852    1.0000 </r>
       <r>    3.6993    1.0000 </r>
       <r>    6.2950    1.0000 </r>
       <r>    6.3002    1.0000 </r>
       <r>    6.3211    1.0000 </r>
       <r>    8.0500   -0.0222 </r>
       <r>    8.0729    0.0000 </r>
       <r>    8.1478    0.0000 </r>
       <r>    8.1502    0.0000 </r>
       <r>    8.5739    0.0000 </r>
       <r>    8.7569    0.0000 </r>
       <r>    9.3190    0.0000 </r>
       <r>    9.3453    0.0000 </r>
       <r>    9.3631    0.0000 </r>
       <r>    9.4187    0.0000 </r>
       <r>    9.5783    0.0000 </r>
       <r>   10.5475    0.0000 </r>
       <r>   10.8170    0.0000 </r>
      </set>
      <set comment="kpoint 2">
       <r>  -51.3457    1.0000 </r>
       <r>  -49.6733    1.0000 </r>
       <r>  -49.6716    1.0000 </r>
       <r>  -28.9682    1.0000 </r>
       <r>  -28.9635    1.0000 </r>
       <r>  -28.8856    1.0000 </r>
       <r>  -27.6361    1.0000 </r>
       <r>  -27.6319    1.0000 </r>
       <r>  -27.6036    1.0000 </r>
       <r>  -25.9314    1.0000 </r>
       <r>  -25.9278    1.0000 </r>
       <r>  -25.8586    1.0000 </r>
       <r>  -25.8552    1.0000 </r>
       <r>  -25.8275    1.0000 </r>
       <r>  -25.8239    1.0000 </r>
       <r>  -13.2537    1.0000 </r>
       <r>  -13.1843    1.0000 </r>
       <r>  -12.8656    1.0000 </r>
       <r>  -12.5972    1.0000 </r>
       <r>  -12.5082    1.0000 </r>
       <r>  -12.2167    1.0000 </r>
       <r>  -11.9975    1.0000 </r>
       <r>  -11.9577    1.0000 </r>
       <r>  -11.7713    1.0000 </r>
       <r>  -10.9301    1.0000 </r>
       <r>  -10.9128    1.0000 </r>
       <r>  -10.8927    1.0000 </r>
       <r>  -10.8309    1.0000 </r>
       <r>  -10.7918    1.0000 </r>
       <r>  -10.7698    1.0000 </r>
       <r>  -10.6625    1.0000 </r>
       <r>  -10.5358    1.0000 </r>
       <r>  -10.4254    1.0000 </r>
       <r>   -0.4278    1.0000 </r>
       <r>   -0.1502    1.0000 </r>
       <r>    0.1323    1.0000 </r>
       <r>    0.7482    1.0000 </r>
       <r>    0.9022    1.0000 </r>
       <r>    1.2109    1.0000 </r>
       <r>    1.3590    1.0000 </r>
       <r>    1.3956    1.0000 </r>
       <r>    1.4170    1.0000 </r>
       <r>    1.5742    1.0000 </r>
       <r>    1.5957    1.0000 </r>
       <r>    1.6426    1.0000 </r>
       <r>    1.7610    1.0000 </r>
       <r>    2.0194    1.0000 </r>
       <r>    2.1130    1.0000 </r>
       <r>    2.2749    1.0000 </r>
       <r>    2.5353    1.0000 </r>
       <r>    2.5817    1.0000 </r>
       <r>    2.6123    1.0000 </r>
       <r>    2.8288    1.0000 </r>
       <r>    2.9441    1.0000 </r>
       <r>    3.0194    1.0000 </r>
       <r>    3.0443    1.0000 </r>
       <r>    3.1675    1.0000 </r>
       <r>    3.4110    1.0000 </r>
       <r>    3.4383    1.0000 </r>
       <r>    3.5505    1.0000 </r>
       <r>    6.5163    1.0000 </r>
       <r>    6.8875    1.0000 </r>
       <r>    7.0401    0.7872 </r>
       <r>    7.1545    0.0125 </r>
       <r>    7.6381    0.0000 </r>
       <r>    8.4479    0.0000 </r>
       <r>    8.5032    0.0000 </r>
       <r>    8.5970    0.0000 </r>
       <r>    8.8602    0.0000 </r>
       <r>    9.3797    0.0000 </r>
       <r>    9.8347    0.0000 </r>
       <r>    9.8834    0.0000 </r>
       <r>   10.0416    0.0000 </r>
       <r>   10.1472    0.0000 </r>
       <r>   10.8007    0.0000 </r>
       <r>   10.9498    0.0000 </r>
      </set>
      <set comment="kpoint 3">
       <r>  -51.3457    1.0000 </r>
       <r>  -49.6724    1.0000 </r>
       <r>  -49.6724    1.0000 </r>
       <r>  -28.9671    1.0000 </r>
       <r>  -28.9654    1.0000 </r>
       <r>  -28.8876    1.0000 </r>
       <r>  -27.6346    1.0000 </r>
       <r>  -27.6318    1.0000 </r>
       <r>  -27.6036    1.0000 </r>
       <r>  -25.9305    1.0000 </r>
       <r>  -25.9287    1.0000 </r>
       <r>  -25.8559    1.0000 </r>
       <r>  -25.8539    1.0000 </r>
       <r>  -25.8257    1.0000 </r>
       <r>  -25.8256    1.0000 </r>
       <r>  -13.3742    1.0000 </r>
       <r>  -13.2532    1.0000 </r>
       <r>  -12.9673    1.0000 </r>
       <r>  -12.5776    1.0000 </r>
       <r>  -12.4878    1.0000 </r>
       <r>  -12.0993    1.0000 </r>
       <r>  -12.0435    1.0000 </r>
       <r>  -11.7916    1.0000 </r>
       <r>  -11.7467    1.0000 </r>
       <r>  -10.9215    1.0000 </r>
       <r>  -10.9205    1.0000 </r>
       <r>  -10.8939    1.0000 </r>
       <r>  -10.8362    1.0000 </r>
       <r>  -10.7948    1.0000 </r>
       <r>  -10.7914    1.0000 </r>
       <r>  -10.6472    1.0000 </r>
       <r>  -10.5115    1.0000 </r>
       <r>  -10.3595    1.0000 </r>
       <r>   -0.3703    1.0000 </r>
       <r>   -0.0595    1.0000 </r>
       <r>    0.5247    1.0000 </r>
       <r>    0.7604    1.0000 </r>
       <r>    0.9844    1.0000 </r>
       <r>    1.3786    1.0000 </r>
       <r>    1.4341    1.0000 </r>
       <r>    1.4589    1.0000 </r>
       <r>    1.5127    1.0000 </r>
       <r>    1.6172    1.0000 </r>
       <r>    1.6350    1.0000 </r>
       <r>    1.6470    1.0000 </r>
       <r>    1.7130    1.0000 </r>
       <r>    1.7766    1.0000 </r>
       <r>    1.7767    1.0000 </r>
       <r>    2.0285    1.0000 </r>
       <r>    2.0536    1.0000 </r>
       <r>    2.1927    1.0000 </r>
       <r>    2.4373    1.0000 </r>
       <r>    2.6125    1.0000 </r>
       <r>    2.9831    1.0000 </r>
       <r>    3.0232    1.0000 </r>
       <r>    3.0680    1.0000 </r>
       <r>    3.0906    1.0000 </r>
       <r>    3.1733    1.0000 </r>
       <r>    3.4342    1.0000 </r>
       <r>    3.5268    1.0000 </r>
       <r>    6.5273    1.0000 </r>
       <r>    6.9373    1.0000 </r>
       <r>    7.1778    0.1501 </r>
       <r>    8.0585   -0.0004 </r>
       <r>    8.0690    0.0000 </r>
       <r>    8.1140    0.0000 </r>
       <r>    8.2268    0.0000 </r>
       <r>    8.5819    0.0000 </r>
       <r>    8.6215    0.0000 </r>
       <r>    9.3095    0.0000 </r>
       <r>   10.0032    0.0000 </r>
       <r>   10.6253    0.0000 </r>
       <r>   10.8081    0.0000 </r>
       <r>   10.9430    0.0000 </r>
       <r>   10.9680    0.0000 </r>
       <r>   11.0151    0.0000 </r>
      </set>
      <set comment="kpoint 4">
       <r>  -51.3457    1.0000 </r>
       <r>  -49.6724    1.0000 </r>
       <r>  -49.6724    1.0000 </r>
       <r>  -28.9671    1.0000 </r>
       <r>  -28.9654    1.0000 </r>
       <r>  -28.8876    1.0000 </r>
       <r>  -27.6346    1.0000 </r>
       <r>  -27.6318    1.0000 </r>
       <r>  -27.6036    1.0000 </r>
       <r>  -25.9300    1.0000 </r>
       <r>  -25.9292    1.0000 </r>
       <r>  -25.8554    1.0000 </r>
       <r>  -25.8544    1.0000 </r>
       <r>  -25.8257    1.0000 </r>
       <r>  -25.8256    1.0000 </r>
       <r>  -13.3569    1.0000 </r>
       <r>  -13.2830    1.0000 </r>
       <r>  -12.9487    1.0000 </r>
       <r>  -12.5851    1.0000 </r>
       <r>  -12.4646    1.0000 </r>
       <r>  -12.2122    1.0000 </r>
       <r>  -11.8914    1.0000 </r>
       <r>  -11.8255    1.0000 </r>
       <r>  -11.7750    1.0000 </r>
       <r>  -10.9215    1.0000 </r>
       <r>  -10.9205    1.0000 </r>
       <r>  -10.8840    1.0000 </r>
       <r>  -10.8362    1.0000 </r>
       <r>  -10.8247    1.0000 </r>
       <r>  -10.7638    1.0000 </r>
       <r>  -10.6617    1.0000 </r>
       <r>  -10.4990    1.0000 </r>
       <r>  -10.3639    1.0000 </r>
       <r>   -0.3164    1.0000 </r>
       <r>   -0.1595    1.0000 </r>
       <r>    0.5309    1.0000 </r>
       <r>    0.9483    1.0000 </r>
       <r>    1.0917    1.0000 </r>
       <r>    1.1075    1.0000 </r>
       <r>    1.3651    1.0000 </r>
       <r>    1.4336    1.0000 </r>
       <r>    1.5148    1.0000 </r>
       <r>    1.5783    1.0000 </r>
       <r>    1.6163    1.0000 </r>
       <r>    1.6388    1.0000 </r>
       <r>    1.7309    1.0000 </r>
       <r>    1.7639    1.0000 </r>
       <r>    1.9412    1.0000 </r>
       <r>    1.9539    1.0000 </r>
       <r>    2.0558    1.0000 </r>
       <r>    2.3970    1.0000 </r>
       <r>    2.5332    1.0000 </r>
       <r>    2.5496    1.0000 </r>
       <r>    2.6701    1.0000 </r>
       <r>    2.9598    1.0000 </r>
       <r>    3.0958    1.0000 </r>
       <r>    3.2620    1.0000 </r>
       <r>    3.2797    1.0000 </r>
       <r>    3.3516    1.0000 </r>
       <r>    3.5209    1.0000 </r>
       <r>    6.6389    1.0000 </r>
       <r>    6.6953    1.0000 </r>
       <r>    7.5041   -0.0786 </r>
       <r>    7.6370   -0.0102 </r>
       <r>    8.0053    0.0000 </r>
       <r>    8.4046    0.0000 </r>
       <r>    8.4313    0.0000 </r>
       <r>    8.4455    0.0000 </r>
       <r>    8.5506    0.0000 </r>
       <r>    9.3285    0.0000 </r>
       <r>    9.9771    0.0000 </r>
       <r>   10.5661    0.0000 </r>
       <r>   10.8682    0.0000 </r>
       <r>   10.9083    0.0000 </r>
       <r>   11.0001    0.0000 </r>
       <r>   11.0368    0.0000 </r>
      </set>
      <set comment="kpoint 5">
       <r>  -51.3457    1.0000 </r>
       <r>  -49.6733    1.0000 </r>
       <r>  -49.6716    1.0000 </r>
       <r>  -28.9688    1.0000 </r>
       <r>  -28.9630    1.0000 </r>
       <r>  -28.8854    1.0000 </r>
       <r>  -27.6361    1.0000 </r>
       <r>  -27.6319    1.0000 </r>
       <r>  -27.6036    1.0000 </r>
       <r>  -25.9317    1.0000 </r>
       <r>  -25.9293    1.0000 </r>
       <r>  -25.8583    1.0000 </r>
       <r>  -25.8536    1.0000 </r>
       <r>  -25.8274    1.0000 </r>
       <r>  -25.8240    1.0000 </r>
       <r>  -13.2983    1.0000 </r>
       <r>  -13.1721    1.0000 </r>
       <r>  -12.8656    1.0000 </r>
       <r>  -12.5967    1.0000 </r>
       <r>  -12.3673    1.0000 </r>
       <r>  -12.1577    1.0000 </r>
       <r>  -12.1422    1.0000 </r>
       <r>  -11.9894    1.0000 </r>
       <r>  -11.7778    1.0000 </r>
       <r>  -10.9278    1.0000 </r>
       <r>  -10.9164    1.0000 </r>
       <r>  -10.9094    1.0000 </r>
       <r>  -10.8508    1.0000 </r>
       <r>  -10.8296    1.0000 </r>
       <r>  -10.6828    1.0000 </r>
       <r>  -10.6180    1.0000 </r>
       <r>  -10.5553    1.0000 </r>
       <r>  -10.4489    1.0000 </r>
       <r>   -0.2710    1.0000 </r>
       <r>   -0.1200    1.0000 </r>
       <r>    0.0199    1.0000 </r>
       <r>    0.5150    1.0000 </r>
       <r>    0.8970    1.0000 </r>
       <r>    1.3198    1.0000 </r>
       <r>    1.3408    1.0000 </r>
       <r>    1.3627    1.0000 </r>
       <r>    1.5901    1.0000 </r>
       <r>    1.5923    1.0000 </r>
       <r>    1.6700    1.0000 </r>
       <r>    1.7213    1.0000 </r>
       <r>    2.0015    1.0000 </r>
       <r>    2.0374    1.0000 </r>
       <r>    2.1570    1.0000 </r>
       <r>    2.2360    1.0000 </r>
       <r>    2.3052    1.0000 </r>
       <r>    2.3778    1.0000 </r>
       <r>    2.4747    1.0000 </r>
       <r>    2.6146    1.0000 </r>
       <r>    2.7355    1.0000 </r>
       <r>    2.7948    1.0000 </r>
       <r>    3.1578    1.0000 </r>
       <r>    3.3252    1.0000 </r>
       <r>    3.5182    1.0000 </r>
       <r>    3.5988    1.0000 </r>
       <r>    3.6938    1.0000 </r>
       <r>    6.4073    1.0000 </r>
       <r>    6.6304    1.0000 </r>
       <r>    7.5083    0.0010 </r>
       <r>    7.5120   -0.0005 </r>
       <r>    8.0482    0.0000 </r>
       <r>    8.0701    0.0000 </r>
       <r>    8.1185    0.0000 </r>
       <r>    8.4715    0.0000 </r>
       <r>    8.9439    0.0000 </r>
       <r>    9.2955    0.0000 </r>
       <r>    9.8406    0.0000 </r>
       <r>   10.1115    0.0000 </r>
       <r>   10.2035    0.0000 </r>
       <r>   10.4941    0.0000 </r>
       <r>   10.7088    0.0000 </r>
       <r>   10.7188    0.0000 </r>
      </set>
      <set comment="kpoint 6">
       <r>  -51.3457    1.0000 </r>
       <r>  -49.6736    1.0000 </r>
       <r>  -49.6712    1.0000 </r>
       <r>  -28.9692    1.0000 </r>
       <r>  -28.9618    1.0000 </r>
       <r>  -28.8835    1.0000 </r>
       <r>  -27.6377    1.0000 </r>
       <r>  -27.6319    1.0000 </r>
       <r>  -27.6036    1.0000 </r>
       <r>  -25.9336    1.0000 </r>
       <r>  -25.9273    1.0000 </r>
       <r>  -25.8619    1.0000 </r>
       <r>  -25.8541    1.0000 </r>
       <r>  -25.8282    1.0000 </r>
       <r>  -25.8232    1.0000 </r>
       <r>  -13.1859    1.0000 </r>
       <r>  -13.0554    1.0000 </r>
       <r>  -12.7451    1.0000 </r>
       <r>  -12.5274    1.0000 </r>
       <r>  -12.4905    1.0000 </r>
       <r>  -12.2433    1.0000 </r>
       <r>  -12.2016    1.0000 </r>
       <r>  -12.1417    1.0000 </r>
       <r>  -11.7731    1.0000 </r>
       <r>  -10.9330    1.0000 </r>
       <r>  -10.9118    1.0000 </r>
       <r>  -10.8996    1.0000 </r>
       <r>  -10.8493    1.0000 </r>
       <r>  -10.8246    1.0000 </r>
       <r>  -10.7500    1.0000 </r>
       <r>  -10.5988    1.0000 </r>
       <r>  -10.5331    1.0000 </r>
       <r>  -10.5260    1.0000 </r>
       <r>   -0.3382    1.0000 </r>
       <r>   -0.2779    1.0000 </r>
       <r>   -0.1689    1.0000 </r>
       <r>    0.5697    1.0000 </r>
       <r>    0.9454    1.0000 </r>
       <r>    1.1520    1.0000 </r>
       <r>    1.2320    1.0000 </r>
       <r>    1.3078    1.0000 </r>
       <r>    1.4951    1.0000 </r>
       <r>    1.5587    1.0000 </r>
       <r>    1.6245    1.0000 </r>
       <r>    1.6747    1.0000 </r>
       <r>    1.9530    1.0000 </r>
       <r>    2.1577    1.0000 </r>
       <r>    2.3079    1.0000 </r>
       <r>    2.4434    1.0000 </r>
       <r>    2.5873    1.0000 </r>
       <r>    2.6698    1.0000 </r>
       <r>    2.7291    1.0000 </r>
       <r>    2.7397    1.0000 </r>
       <r>    2.9894    1.0000 </r>
       <r>    3.0603    1.0000 </r>
       <r>    3.3424    1.0000 </r>
       <r>    3.3897    1.0000 </r>
       <r>    3.5044    1.0000 </r>
       <r>    3.6144    1.0000 </r>
       <r>    3.8550    1.0000 </r>
       <r>    6.4590    1.0000 </r>
       <r>    6.5134    1.0000 </r>
       <r>    6.6433    1.1122 </r>
       <r>    7.4990   -0.0005 </r>
       <r>    7.6395    0.0000 </r>
       <r>    8.0078    0.0000 </r>
       <r>    8.4682    0.0000 </r>
       <r>    8.4902    0.0000 </r>
       <r>    9.1517    0.0000 </r>
       <r>    9.3692    0.0000 </r>
       <r>    9.5549    0.0000 </r>
       <r>    9.5862    0.0000 </r>
       <r>    9.7011    0.0000 </r>
       <r>    9.8962    0.0000 </r>
       <r>   10.5577    0.0000 </r>
       <r>   10.7950    0.0000 </r>
      </set>
      <set comment="kpoint 7">
       <r>  -51.3457    1.0000 </r>
       <r>  -49.6736    1.0000 </r>
       <r>  -49.6712    1.0000 </r>
       <r>  -28.9692    1.0000 </r>
       <r>  -28.9621    1.0000 </r>
       <r>  -28.8832    1.0000 </r>
       <r>  -27.6377    1.0000 </r>
       <r>  -27.6320    1.0000 </r>
       <r>  -27.6036    1.0000 </r>
       <r>  -25.9332    1.0000 </r>
       <r>  -25.9278    1.0000 </r>
       <r>  -25.8622    1.0000 </r>
       <r>  -25.8535    1.0000 </r>
       <r>  -25.8282    1.0000 </r>
       <r>  -25.8233    1.0000 </r>
       <r>  -13.2072    1.0000 </r>
       <r>  -13.0346    1.0000 </r>
       <r>  -12.6793    1.0000 </r>
       <r>  -12.5871    1.0000 </r>
       <r>  -12.4974    1.0000 </r>
       <r>  -12.1936    1.0000 </r>
       <r>  -12.1840    1.0000 </r>
       <r>  -12.1757    1.0000 </r>
       <r>  -11.8465    1.0000 </r>
       <r>  -10.9284    1.0000 </r>
       <r>  -10.9180    1.0000 </r>
       <r>  -10.8418    1.0000 </r>
       <r>  -10.8382    1.0000 </r>
       <r>  -10.8229    1.0000 </r>
       <r>  -10.7581    1.0000 </r>
       <r>  -10.6466    1.0000 </r>
       <r>  -10.5244    1.0000 </r>
       <r>  -10.5024    1.0000 </r>
       <r>   -0.4581    1.0000 </r>
       <r>   -0.3846    1.0000 </r>
       <r>   -0.3318    1.0000 </r>
       <r>    1.0353    1.0000 </r>
       <r>    1.1157    1.0000 </r>
       <r>    1.2238    1.0000 </r>
       <r>    1.2435    1.0000 </r>
       <r>    1.2681    1.0000 </r>
       <r>    1.5101    1.0000 </r>
       <r>    1.5614    1.0000 </r>
       <r>    1.6750    1.0000 </r>
       <r>    1.9174    1.0000 </r>
       <r>    1.9788    1.0000 </r>
       <r>    2.3020    1.0000 </r>
       <r>    2.3232    1.0000 </r>
       <r>    2.3454    1.0000 </r>
       <r>    2.4117    1.0000 </r>
       <r>    2.5318    1.0000 </r>
       <r>    2.6278    1.0000 </r>
       <r>    2.6344    1.0000 </r>
       <r>    3.0384    1.0000 </r>
       <r>    3.1142    1.0000 </r>
       <r>    3.1157    1.0000 </r>
       <r>    3.2368    1.0000 </r>
       <r>    3.3159    1.0000 </r>
       <r>    3.5219    1.0000 </r>
       <r>    3.9451    1.0000 </r>
       <r>    6.8011    1.0000 </r>
       <r>    6.9293    1.0000 </r>
       <r>    7.0182    0.6490 </r>
       <r>    7.1466    0.0054 </r>
       <r>    7.2443    0.0000 </r>
       <r>    7.3628    0.0000 </r>
       <r>    8.6093    0.0000 </r>
       <r>    8.6145    0.0000 </r>
       <r>    9.3217    0.0000 </r>
       <r>    9.4140    0.0000 </r>
       <r>   10.0673    0.0000 </r>
       <r>   10.0827    0.0000 </r>
       <r>   10.1325    0.0000 </r>
       <r>   10.2303    0.0000 </r>
       <r>   10.2980    0.0000 </r>
       <r>   10.4586    0.0000 </r>
      </set>
      <set comment="kpoint 8">
       <r>  -51.3456    1.0000 </r>
       <r>  -49.6733    1.0000 </r>
       <r>  -49.6709    1.0000 </r>
       <r>  -28.9681    1.0000 </r>
       <r>  -28.9599    1.0000 </r>
       <r>  -28.8822    1.0000 </r>
       <r>  -27.6374    1.0000 </r>
       <r>  -27.6319    1.0000 </r>
       <r>  -27.6095    1.0000 </r>
       <r>  -25.9332    1.0000 </r>
       <r>  -25.9264    1.0000 </r>
       <r>  -25.8608    1.0000 </r>
       <r>  -25.8541    1.0000 </r>
       <r>  -25.8462    1.0000 </r>
       <r>  -25.8416    1.0000 </r>
       <r>  -13.1099    1.0000 </r>
       <r>  -12.9871    1.0000 </r>
       <r>  -12.7642    1.0000 </r>
       <r>  -12.4781    1.0000 </r>
       <r>  -12.4559    1.0000 </r>
       <r>  -12.2374    1.0000 </r>
       <r>  -12.2069    1.0000 </r>
       <r>  -12.0957    1.0000 </r>
       <r>  -11.7151    1.0000 </r>
       <r>  -10.9493    1.0000 </r>
       <r>  -10.9188    1.0000 </r>
       <r>  -10.9044    1.0000 </r>
       <r>  -10.8946    1.0000 </r>
       <r>  -10.8198    1.0000 </r>
       <r>  -10.7168    1.0000 </r>
       <r>  -10.6250    1.0000 </r>
       <r>  -10.5792    1.0000 </r>
       <r>  -10.5198    1.0000 </r>
       <r>   -0.1244    1.0000 </r>
       <r>   -0.1216    1.0000 </r>
       <r>    0.2049    1.0000 </r>
       <r>    0.2283    1.0000 </r>
       <r>    0.5843    1.0000 </r>
       <r>    0.6597    1.0000 </r>
       <r>    1.0050    1.0000 </r>
       <r>    1.1300    1.0000 </r>
       <r>    1.2917    1.0000 </r>
       <r>    1.4625    1.0000 </r>
       <r>    1.4949    1.0000 </r>
       <r>    1.6656    1.0000 </r>
       <r>    1.6771    1.0000 </r>
       <r>    2.1409    1.0000 </r>
       <r>    2.2035    1.0000 </r>
       <r>    2.5967    1.0000 </r>
       <r>    2.6250    1.0000 </r>
       <r>    2.6346    1.0000 </r>
       <r>    2.6727    1.0000 </r>
       <r>    2.8182    1.0000 </r>
       <r>    2.9503    1.0000 </r>
       <r>    3.0923    1.0000 </r>
       <r>    3.3532    1.0000 </r>
       <r>    3.5188    1.0000 </r>
       <r>    3.5886    1.0000 </r>
       <r>    3.6460    1.0000 </r>
       <r>    3.6698    1.0000 </r>
       <r>    6.3473    1.0000 </r>
       <r>    6.6000    1.1259 </r>
       <r>    6.6052    1.1009 </r>
       <r>    8.1262   -0.0007 </r>
       <r>    8.1799    0.0000 </r>
       <r>    8.2119    0.0000 </r>
       <r>    8.2397    0.0000 </r>
       <r>    8.5949    0.0000 </r>
       <r>    8.7918    0.0000 </r>
       <r>    9.5250    0.0000 </r>
       <r>    9.5265    0.0000 </r>
       <r>    9.5926    0.0000 </r>
       <r>    9.6050    0.0000 </r>
       <r>    9.7802    0.0000 </r>
       <r>   11.0337    0.0000 </r>
       <r>   11.0952    0.0000 </r>
      </set>
      <set comment="kpoint 9">
       <r>  -51.3456    1.0000 </r>
       <r>  -49.6730    1.0000 </r>
       <r>  -49.6713    1.0000 </r>
       <r>  -28.9668    1.0000 </r>
       <r>  -28.9617    1.0000 </r>
       <r>  -28.8840    1.0000 </r>
       <r>  -27.6361    1.0000 </r>
       <r>  -27.6319    1.0000 </r>
       <r>  -27.6096    1.0000 </r>
       <r>  -25.9310    1.0000 </r>
       <r>  -25.9274    1.0000 </r>
       <r>  -25.8581    1.0000 </r>
       <r>  -25.8546    1.0000 </r>
       <r>  -25.8457    1.0000 </r>
       <r>  -25.8424    1.0000 </r>
       <r>  -13.1697    1.0000 </r>
       <r>  -13.1012    1.0000 </r>
       <r>  -12.8356    1.0000 </r>
       <r>  -12.5772    1.0000 </r>
       <r>  -12.4877    1.0000 </r>
       <r>  -12.1967    1.0000 </r>
       <r>  -11.9916    1.0000 </r>
       <r>  -11.9718    1.0000 </r>
       <r>  -11.7859    1.0000 </r>
       <r>  -10.9521    1.0000 </r>
       <r>  -10.9085    1.0000 </r>
       <r>  -10.9010    1.0000 </r>
       <r>  -10.8551    1.0000 </r>
       <r>  -10.7702    1.0000 </r>
       <r>  -10.7294    1.0000 </r>
       <r>  -10.6405    1.0000 </r>
       <r>  -10.5636    1.0000 </r>
       <r>  -10.4430    1.0000 </r>
       <r>   -0.4311    1.0000 </r>
       <r>   -0.1507    1.0000 </r>
       <r>    0.1567    1.0000 </r>
       <r>    0.6776    1.0000 </r>
       <r>    0.8652    1.0000 </r>
       <r>    1.0037    1.0000 </r>
       <r>    1.1097    1.0000 </r>
       <r>    1.1873    1.0000 </r>
       <r>    1.3148    1.0000 </r>
       <r>    1.3562    1.0000 </r>
       <r>    1.5007    1.0000 </r>
       <r>    1.5942    1.0000 </r>
       <r>    1.6191    1.0000 </r>
       <r>    2.1729    1.0000 </r>
       <r>    2.2230    1.0000 </r>
       <r>    2.3418    1.0000 </r>
       <r>    2.4105    1.0000 </r>
       <r>    2.5174    1.0000 </r>
       <r>    2.6143    1.0000 </r>
       <r>    2.6994    1.0000 </r>
       <r>    2.8393    1.0000 </r>
       <r>    2.9860    1.0000 </r>
       <r>    3.0789    1.0000 </r>
       <r>    3.2360    1.0000 </r>
       <r>    3.3177    1.0000 </r>
       <r>    3.3960    1.0000 </r>
       <r>    3.4387    1.0000 </r>
       <r>    6.7655    1.0260 </r>
       <r>    7.0574    0.8378 </r>
       <r>    7.0733    0.5403 </r>
       <r>    7.3211    0.0006 </r>
       <r>    7.7658    0.0000 </r>
       <r>    8.4942    0.0000 </r>
       <r>    8.5199    0.0000 </r>
       <r>    8.6535    0.0000 </r>
       <r>    8.8859    0.0000 </r>
       <r>    9.7199    0.0000 </r>
       <r>   10.0075    0.0000 </r>
       <r>   10.0491    0.0000 </r>
       <r>   10.1281    0.0000 </r>
       <r>   10.3333    0.0000 </r>
       <r>   11.1987    0.0000 </r>
       <r>   11.3245    0.0000 </r>
      </set>
      <set comment="kpoint 10">
       <r>  -51.3456    1.0000 </r>
       <r>  -49.6721    1.0000 </r>
       <r>  -49.6721    1.0000 </r>
       <r>  -28.9651    1.0000 </r>
       <r>  -28.9637    1.0000 </r>
       <r>  -28.8858    1.0000 </r>
       <r>  -27.6347    1.0000 </r>
       <r>  -27.6319    1.0000 </r>
       <r>  -27.6097    1.0000 </r>
       <r>  -25.9303    1.0000 </r>
       <r>  -25.9286    1.0000 </r>
       <r>  -25.8553    1.0000 </r>
       <r>  -25.8535    1.0000 </r>
       <r>  -25.8442    1.0000 </r>
       <r>  -25.8441    1.0000 </r>
       <r>  -13.2885    1.0000 </r>
       <r>  -13.1657    1.0000 </r>
       <r>  -12.9179    1.0000 </r>
       <r>  -12.5468    1.0000 </r>
       <r>  -12.4659    1.0000 </r>
       <r>  -12.1182    1.0000 </r>
       <r>  -12.0294    1.0000 </r>
       <r>  -11.8185    1.0000 </r>
       <r>  -11.8142    1.0000 </r>
       <r>  -10.9209    1.0000 </r>
       <r>  -10.9182    1.0000 </r>
       <r>  -10.8836    1.0000 </r>
       <r>  -10.8325    1.0000 </r>
       <r>  -10.7730    1.0000 </r>
       <r>  -10.7620    1.0000 </r>
       <r>  -10.6301    1.0000 </r>
       <r>  -10.5368    1.0000 </r>
       <r>  -10.3662    1.0000 </r>
       <r>   -0.3753    1.0000 </r>
       <r>   -0.0610    1.0000 </r>
       <r>    0.4734    1.0000 </r>
       <r>    0.7200    1.0000 </r>
       <r>    0.9005    1.0000 </r>
       <r>    0.9211    1.0000 </r>
       <r>    1.1489    1.0000 </r>
       <r>    1.3053    1.0000 </r>
       <r>    1.3395    1.0000 </r>
       <r>    1.4123    1.0000 </r>
       <r>    1.5284    1.0000 </r>
       <r>    1.5554    1.0000 </r>
       <r>    1.6605    1.0000 </r>
       <r>    1.7536    1.0000 </r>
       <r>    1.8377    1.0000 </r>
       <r>    2.0373    1.0000 </r>
       <r>    2.2937    1.0000 </r>
       <r>    2.4662    1.0000 </r>
       <r>    2.5597    1.0000 </r>
       <r>    2.6272    1.0000 </r>
       <r>    2.8254    1.0000 </r>
       <r>    2.8562    1.0000 </r>
       <r>    3.0927    1.0000 </r>
       <r>    3.1043    1.0000 </r>
       <r>    3.1978    1.0000 </r>
       <r>    3.3150    1.0000 </r>
       <r>    3.3467    1.0000 </r>
       <r>    6.8027    1.0099 </r>
       <r>    7.1383    0.7152 </r>
       <r>    7.3390   -0.0011 </r>
       <r>    8.1090   -0.0002 </r>
       <r>    8.1279    0.0000 </r>
       <r>    8.1400    0.0000 </r>
       <r>    8.2507    0.0000 </r>
       <r>    8.6131    0.0000 </r>
       <r>    8.6270    0.0000 </r>
       <r>    9.6179    0.0000 </r>
       <r>   10.1977    0.0000 </r>
       <r>   10.9373    0.0000 </r>
       <r>   11.0084    0.0000 </r>
       <r>   11.0179    0.0000 </r>
       <r>   11.1170    0.0000 </r>
       <r>   11.1847    0.0000 </r>
      </set>
      <set comment="kpoint 11">
       <r>  -51.3456    1.0000 </r>
       <r>  -49.6721    1.0000 </r>
       <r>  -49.6721    1.0000 </r>
       <r>  -28.9651    1.0000 </r>
       <r>  -28.9637    1.0000 </r>
       <r>  -28.8858    1.0000 </r>
       <r>  -27.6347    1.0000 </r>
       <r>  -27.6319    1.0000 </r>
       <r>  -27.6097    1.0000 </r>
       <r>  -25.9298    1.0000 </r>
       <r>  -25.9291    1.0000 </r>
       <r>  -25.8548    1.0000 </r>
       <r>  -25.8540    1.0000 </r>
       <r>  -25.8442    1.0000 </r>
       <r>  -25.8441    1.0000 </r>
       <r>  -13.2677    1.0000 </r>
       <r>  -13.2020    1.0000 </r>
       <r>  -12.8937    1.0000 </r>
       <r>  -12.5527    1.0000 </r>
       <r>  -12.4554    1.0000 </r>
       <r>  -12.1925    1.0000 </r>
       <r>  -11.9130    1.0000 </r>
       <r>  -11.8745    1.0000 </r>
       <r>  -11.8127    1.0000 </r>
       <r>  -10.9330    1.0000 </r>
       <r>  -10.9054    1.0000 </r>
       <r>  -10.8774    1.0000 </r>
       <r>  -10.8353    1.0000 </r>
       <r>  -10.7718    1.0000 </r>
       <r>  -10.7713    1.0000 </r>
       <r>  -10.6315    1.0000 </r>
       <r>  -10.5278    1.0000 </r>
       <r>  -10.3696    1.0000 </r>
       <r>   -0.3215    1.0000 </r>
       <r>   -0.1617    1.0000 </r>
       <r>    0.4820    1.0000 </r>
       <r>    0.8260    1.0000 </r>
       <r>    0.9061    1.0000 </r>
       <r>    1.0125    1.0000 </r>
       <r>    1.1507    1.0000 </r>
       <r>    1.1958    1.0000 </r>
       <r>    1.2955    1.0000 </r>
       <r>    1.4147    1.0000 </r>
       <r>    1.4377    1.0000 </r>
       <r>    1.5736    1.0000 </r>
       <r>    1.5825    1.0000 </r>
       <r>    1.7614    1.0000 </r>
       <r>    1.8283    1.0000 </r>
       <r>    2.2105    1.0000 </r>
       <r>    2.3732    1.0000 </r>
       <r>    2.4019    1.0000 </r>
       <r>    2.6400    1.0000 </r>
       <r>    2.6456    1.0000 </r>
       <r>    2.7719    1.0000 </r>
       <r>    2.8042    1.0000 </r>
       <r>    2.8760    1.0000 </r>
       <r>    3.2097    1.0000 </r>
       <r>    3.2759    1.0000 </r>
       <r>    3.3176    1.0000 </r>
       <r>    3.3349    1.0000 </r>
       <r>    6.8914    0.9776 </r>
       <r>    6.9384    0.9067 </r>
       <r>    7.6298   -0.0778 </r>
       <r>    7.7286   -0.0003 </r>
       <r>    8.0311    0.0000 </r>
       <r>    8.4138    0.0000 </r>
       <r>    8.4722    0.0000 </r>
       <r>    8.4771    0.0000 </r>
       <r>    8.5637    0.0000 </r>
       <r>    9.6503    0.0000 </r>
       <r>   10.1476    0.0000 </r>
       <r>   10.8932    0.0000 </r>
       <r>   11.0055    0.0000 </r>
       <r>   11.0181    0.0000 </r>
       <r>   11.1162    0.0000 </r>
       <r>   11.1660    0.0000 </r>
      </set>
      <set comment="kpoint 12">
       <r>  -51.3456    1.0000 </r>
       <r>  -49.6730    1.0000 </r>
       <r>  -49.6713    1.0000 </r>
       <r>  -28.9671    1.0000 </r>
       <r>  -28.9615    1.0000 </r>
       <r>  -28.8838    1.0000 </r>
       <r>  -27.6361    1.0000 </r>
       <r>  -27.6320    1.0000 </r>
       <r>  -27.6096    1.0000 </r>
       <r>  -25.9313    1.0000 </r>
       <r>  -25.9288    1.0000 </r>
       <r>  -25.8578    1.0000 </r>
       <r>  -25.8532    1.0000 </r>
       <r>  -25.8457    1.0000 </r>
       <r>  -25.8423    1.0000 </r>
       <r>  -13.2177    1.0000 </r>
       <r>  -13.0987    1.0000 </r>
       <r>  -12.8099    1.0000 </r>
       <r>  -12.5775    1.0000 </r>
       <r>  -12.3463    1.0000 </r>
       <r>  -12.1650    1.0000 </r>
       <r>  -12.1279    1.0000 </r>
       <r>  -11.9989    1.0000 </r>
       <r>  -11.8023    1.0000 </r>
       <r>  -10.9268    1.0000 </r>
       <r>  -10.9104    1.0000 </r>
       <r>  -10.8903    1.0000 </r>
       <r>  -10.8379    1.0000 </r>
       <r>  -10.8154    1.0000 </r>
       <r>  -10.6976    1.0000 </r>
       <r>  -10.6201    1.0000 </r>
       <r>  -10.5819    1.0000 </r>
       <r>  -10.4579    1.0000 </r>
       <r>   -0.2702    1.0000 </r>
       <r>   -0.0819    1.0000 </r>
       <r>    0.0318    1.0000 </r>
       <r>    0.4883    1.0000 </r>
       <r>    0.8397    1.0000 </r>
       <r>    1.0249    1.0000 </r>
       <r>    1.0539    1.0000 </r>
       <r>    1.2379    1.0000 </r>
       <r>    1.3629    1.0000 </r>
       <r>    1.4485    1.0000 </r>
       <r>    1.5913    1.0000 </r>
       <r>    1.6297    1.0000 </r>
       <r>    1.7696    1.0000 </r>
       <r>    1.9375    1.0000 </r>
       <r>    2.1636    1.0000 </r>
       <r>    2.2552    1.0000 </r>
       <r>    2.4181    1.0000 </r>
       <r>    2.4447    1.0000 </r>
       <r>    2.5768    1.0000 </r>
       <r>    2.6726    1.0000 </r>
       <r>    2.8501    1.0000 </r>
       <r>    2.8597    1.0000 </r>
       <r>    2.9462    1.0000 </r>
       <r>    3.3064    1.0000 </r>
[...]
       <r>    9.4883    0.0000 </r>
       <r>    9.5289    0.0000 </r>
       <r>    9.8943    0.0000 </r>
       <r>   10.8687    0.0000 </r>
       <r>   10.8710    0.0000 </r>
       <r>   10.9239    0.0000 </r>
       <r>   11.1146    0.0000 </r>
       <r>   11.1430    0.0000 </r>
       <r>   11.5661    0.0000 </r>
      </set>
      <set comment="kpoint 35">
       <r>  -51.3447    1.0000 </r>
       <r>  -49.6712    1.0000 </r>
       <r>  -49.6688    1.0000 </r>
       <r>  -28.9559    1.0000 </r>
       <r>  -28.9509    1.0000 </r>
       <r>  -28.8714    1.0000 </r>
       <r>  -27.6517    1.0000 </r>
       <r>  -27.6355    1.0000 </r>
       <r>  -27.6324    1.0000 </r>
       <r>  -25.9751    1.0000 </r>
       <r>  -25.9707    1.0000 </r>
       <r>  -25.9270    1.0000 </r>
       <r>  -25.9222    1.0000 </r>
       <r>  -25.8566    1.0000 </r>
       <r>  -25.8513    1.0000 </r>
       <r>  -13.0595    1.0000 </r>
       <r>  -12.8973    1.0000 </r>
       <r>  -12.4203    1.0000 </r>
       <r>  -12.0673    1.0000 </r>
       <r>  -12.0215    1.0000 </r>
       <r>  -11.9520    1.0000 </r>
       <r>  -11.7659    1.0000 </r>
       <r>  -11.7338    1.0000 </r>
       <r>  -11.7201    1.0000 </r>
       <r>  -11.1069    1.0000 </r>
       <r>  -11.1008    1.0000 </r>
       <r>  -11.0915    1.0000 </r>
       <r>  -11.0168    1.0000 </r>
       <r>  -10.8640    1.0000 </r>
       <r>  -10.7209    1.0000 </r>
       <r>  -10.6044    1.0000 </r>
       <r>  -10.5668    1.0000 </r>
       <r>  -10.4559    1.0000 </r>
       <r>   -0.7614    1.0000 </r>
       <r>   -0.7175    1.0000 </r>
       <r>   -0.3704    1.0000 </r>
       <r>   -0.2099    1.0000 </r>
       <r>    0.0621    1.0000 </r>
       <r>    0.1640    1.0000 </r>
       <r>    0.2017    1.0000 </r>
       <r>    0.3475    1.0000 </r>
       <r>    0.7799    1.0000 </r>
       <r>    0.7861    1.0000 </r>
       <r>    0.9636    1.0000 </r>
       <r>    1.1792    1.0000 </r>
       <r>    1.3189    1.0000 </r>
       <r>    1.3194    1.0000 </r>
       <r>    1.3963    1.0000 </r>
       <r>    1.6254    1.0000 </r>
       <r>    2.2387    1.0000 </r>
       <r>    2.2625    1.0000 </r>
       <r>    2.8052    1.0000 </r>
       <r>    2.8823    1.0000 </r>
       <r>    2.9041    1.0000 </r>
       <r>    3.0134    1.0000 </r>
       <r>    3.0626    1.0000 </r>
       <r>    3.1387    1.0000 </r>
       <r>    3.9827    1.0000 </r>
       <r>    4.0020    1.0000 </r>
       <r>    4.0427    1.0000 </r>
       <r>    7.4813    0.0117 </r>
       <r>    7.5494    0.0000 </r>
       <r>    8.4779    0.0000 </r>
       <r>    8.5346    0.0000 </r>
       <r>    8.7080    0.0000 </r>
       <r>    8.7269    0.0000 </r>
       <r>    9.6019    0.0000 </r>
       <r>    9.6131    0.0000 </r>
       <r>    9.6196    0.0000 </r>
       <r>   10.3525    0.0000 </r>
       <r>   10.6415    0.0000 </r>
       <r>   10.6806    0.0000 </r>
       <r>   10.7113    0.0000 </r>
       <r>   11.4050    0.0000 </r>
       <r>   11.4302    0.0000 </r>
       <r>   11.4998    0.0000 </r>
      </set>
     </set>
    </set>
   </array>
  </eigenvalues>
  <separator name="orbital magnetization" >
   <v name="MAGDIPOLOUT">      0.00000000      0.00000000      0.00000000</v>
  </separator>
  <dos>
   <i name="efermi">      7.16795660 </i>
   <total>
    <array>
     <dimension dim="1">gridpoints</dimension>
     <dimension dim="2">spin</dimension>
     <field>energy</field>
     <field>total</field>
     <field>integrated</field>
     <set>
      <set comment="spin 1">
       <r>   -54.5094     0.0000     0.0000 </r>
       <r>   -54.2774     0.0000     0.0000 </r>
       <r>   -54.0454     0.0000     0.0000 </r>
       <r>   -53.8134     0.0000     0.0000 </r>
       <r>   -53.5814     0.0000     0.0000 </r>
       <r>   -53.3494     0.0000     0.0000 </r>
       <r>   -53.1174     0.0000     0.0000 </r>
       <r>   -52.8854     0.0000     0.0000 </r>
       <r>   -52.6534     0.0000     0.0000 </r>
       <r>   -52.4213     0.0000     0.0000 </r>
       <r>   -52.1893     0.0000     0.0000 </r>
       <r>   -51.9573     0.0000     0.0000 </r>
       <r>   -51.7253     0.0000     0.0000 </r>
       <r>   -51.4933     0.0000     0.0000 </r>
       <r>   -51.2613     0.0000     2.0000 </r>
       <r>   -51.0293     0.0000     2.0000 </r>
       <r>   -50.7973     0.0000     2.0000 </r>
       <r>   -50.5653     0.0000     2.0000 </r>
       <r>   -50.3333     0.0000     2.0000 </r>
       <r>   -50.1013     0.0000     2.0000 </r>
       <r>   -49.8693     0.0000     2.0000 </r>
       <r>   -49.6373     0.0000     6.0000 </r>
       <r>   -49.4053     0.0000     6.0000 </r>
       <r>   -49.1733     0.0000     6.0000 </r>
       <r>   -48.9413     0.0000     6.0000 </r>
       <r>   -48.7093     0.0000     6.0000 </r>
       <r>   -48.4773     0.0000     6.0000 </r>
       <r>   -48.2453     0.0000     6.0000 </r>
       <r>   -48.0133     0.0000     6.0000 </r>
       <r>   -47.7813     0.0000     6.0000 </r>
       <r>   -47.5493     0.0000     6.0000 </r>
       <r>   -47.3173     0.0000     6.0000 </r>
       <r>   -47.0853     0.0000     6.0000 </r>
       <r>   -46.8533     0.0000     6.0000 </r>
       <r>   -46.6213     0.0000     6.0000 </r>
       <r>   -46.3893     0.0000     6.0000 </r>
       <r>   -46.1573     0.0000     6.0000 </r>
       <r>   -45.9253     0.0000     6.0000 </r>
       <r>   -45.6933     0.0000     6.0000 </r>
       <r>   -45.4613     0.0000     6.0000 </r>
       <r>   -45.2292     0.0000     6.0000 </r>
       <r>   -44.9972     0.0000     6.0000 </r>
       <r>   -44.7652     0.0000     6.0000 </r>
       <r>   -44.5332     0.0000     6.0000 </r>
       <r>   -44.3012     0.0000     6.0000 </r>
       <r>   -44.0692     0.0000     6.0000 </r>
       <r>   -43.8372     0.0000     6.0000 </r>
       <r>   -43.6052     0.0000     6.0000 </r>
       <r>   -43.3732     0.0000     6.0000 </r>
       <r>   -43.1412     0.0000     6.0000 </r>
       <r>   -42.9092     0.0000     6.0000 </r>
       <r>   -42.6772     0.0000     6.0000 </r>
       <r>   -42.4452     0.0000     6.0000 </r>
       <r>   -42.2132     0.0000     6.0000 </r>
       <r>   -41.9812     0.0000     6.0000 </r>
       <r>   -41.7492     0.0000     6.0000 </r>
       <r>   -41.5172     0.0000     6.0000 </r>
       <r>   -41.2852     0.0000     6.0000 </r>
       <r>   -41.0532     0.0000     6.0000 </r>
       <r>   -40.8212     0.0000     6.0000 </r>
       <r>   -40.5892     0.0000     6.0000 </r>
       <r>   -40.3572     0.0000     6.0000 </r>
       <r>   -40.1252     0.0000     6.0000 </r>
       <r>   -39.8932     0.0000     6.0000 </r>
       <r>   -39.6612     0.0000     6.0000 </r>
       <r>   -39.4292     0.0000     6.0000 </r>
       <r>   -39.1972     0.0000     6.0000 </r>
       <r>   -38.9652     0.0000     6.0000 </r>
       <r>   -38.7332     0.0000     6.0000 </r>
       <r>   -38.5012     0.0000     6.0000 </r>
       <r>   -38.2692     0.0000     6.0000 </r>
       <r>   -38.0371     0.0000     6.0000 </r>
       <r>   -37.8051     0.0000     6.0000 </r>
       <r>   -37.5731     0.0000     6.0000 </r>
       <r>   -37.3411     0.0000     6.0000 </r>
       <r>   -37.1091     0.0000     6.0000 </r>
       <r>   -36.8771     0.0000     6.0000 </r>
       <r>   -36.6451     0.0000     6.0000 </r>
       <r>   -36.4131     0.0000     6.0000 </r>
       <r>   -36.1811     0.0000     6.0000 </r>
       <r>   -35.9491     0.0000     6.0000 </r>
       <r>   -35.7171     0.0000     6.0000 </r>
       <r>   -35.4851     0.0000     6.0000 </r>
       <r>   -35.2531     0.0000     6.0000 </r>
       <r>   -35.0211     0.0000     6.0000 </r>
       <r>   -34.7891     0.0000     6.0000 </r>
       <r>   -34.5571     0.0000     6.0000 </r>
       <r>   -34.3251     0.0000     6.0000 </r>
       <r>   -34.0931     0.0000     6.0000 </r>
       <r>   -33.8611     0.0000     6.0000 </r>
       <r>   -33.6291     0.0000     6.0000 </r>
       <r>   -33.3971     0.0000     6.0000 </r>
       <r>   -33.1651     0.0000     6.0000 </r>
       <r>   -32.9331     0.0000     6.0000 </r>
       <r>   -32.7011     0.0000     6.0000 </r>
       <r>   -32.4691     0.0000     6.0000 </r>
       <r>   -32.2371     0.0000     6.0000 </r>
       <r>   -32.0051     0.0000     6.0000 </r>
       <r>   -31.7731     0.0000     6.0000 </r>
       <r>   -31.5411     0.0000     6.0000 </r>
       <r>   -31.3091     0.0000     6.0000 </r>
       <r>   -31.0771     0.0000     6.0000 </r>
       <r>   -30.8450     0.0000     6.0000 </r>
       <r>   -30.6130     0.0000     6.0000 </r>
       <r>   -30.3810     0.0000     6.0000 </r>
       <r>   -30.1490     0.0000     6.0000 </r>
       <r>   -29.9170     0.0000     6.0000 </r>
       <r>   -29.6850     0.0000     6.0000 </r>
       <r>   -29.4530     0.0000     6.0000 </r>
       <r>   -29.2210     0.0000     6.0000 </r>
       <r>   -28.9890     0.0000     6.0000 </r>
       <r>   -28.7570     0.0000    12.0000 </r>
       <r>   -28.5250     0.0000    12.0000 </r>
       <r>   -28.2930     0.0000    12.0000 </r>
       <r>   -28.0610     0.0000    12.0000 </r>
       <r>   -27.8290     0.0000    12.0000 </r>
       <r>   -27.5970     0.0000    18.0000 </r>
       <r>   -27.3650     0.0000    18.0000 </r>
       <r>   -27.1330     0.0000    18.0000 </r>
       <r>   -26.9010     0.0000    18.0000 </r>
       <r>   -26.6690     0.0000    18.0000 </r>
       <r>   -26.4370     0.0000    18.0000 </r>
       <r>   -26.2050     0.0000    18.0000 </r>
       <r>   -25.9730    85.6374    18.3666 </r>
       <r>   -25.7410     0.0000    30.0000 </r>
       <r>   -25.5090     0.0000    30.0000 </r>
       <r>   -25.2770     0.0000    30.0000 </r>
       <r>   -25.0450     0.0000    30.0000 </r>
       <r>   -24.8130     0.0000    30.0000 </r>
       <r>   -24.5810     0.0000    30.0000 </r>
       <r>   -24.3490     0.0000    30.0000 </r>
       <r>   -24.1170     0.0000    30.0000 </r>
       <r>   -23.8850     0.0000    30.0000 </r>
       <r>   -23.6529     0.0000    30.0000 </r>
       <r>   -23.4209     0.0000    30.0000 </r>
       <r>   -23.1889     0.0000    30.0000 </r>
       <r>   -22.9569     0.0000    30.0000 </r>
       <r>   -22.7249     0.0000    30.0000 </r>
       <r>   -22.4929     0.0000    30.0000 </r>
       <r>   -22.2609     0.0000    30.0000 </r>
       <r>   -22.0289     0.0000    30.0000 </r>
       <r>   -21.7969     0.0000    30.0000 </r>
       <r>   -21.5649     0.0000    30.0000 </r>
       <r>   -21.3329     0.0000    30.0000 </r>
       <r>   -21.1009     0.0000    30.0000 </r>
       <r>   -20.8689     0.0000    30.0000 </r>
       <r>   -20.6369     0.0000    30.0000 </r>
       <r>   -20.4049     0.0000    30.0000 </r>
       <r>   -20.1729     0.0000    30.0000 </r>
       <r>   -19.9409     0.0000    30.0000 </r>
       <r>   -19.7089     0.0000    30.0000 </r>
       <r>   -19.4769     0.0000    30.0000 </r>
       <r>   -19.2449     0.0000    30.0000 </r>
       <r>   -19.0129     0.0000    30.0000 </r>
       <r>   -18.7809     0.0000    30.0000 </r>
       <r>   -18.5489     0.0000    30.0000 </r>
       <r>   -18.3169     0.0000    30.0000 </r>
       <r>   -18.0849     0.0000    30.0000 </r>
       <r>   -17.8529     0.0000    30.0000 </r>
       <r>   -17.6209     0.0000    30.0000 </r>
       <r>   -17.3889     0.0000    30.0000 </r>
       <r>   -17.1569     0.0000    30.0000 </r>
       <r>   -16.9249     0.0000    30.0000 </r>
       <r>   -16.6928     0.0000    30.0000 </r>
       <r>   -16.4608     0.0000    30.0000 </r>
       <r>   -16.2288     0.0000    30.0000 </r>
       <r>   -15.9968     0.0000    30.0000 </r>
       <r>   -15.7648     0.0000    30.0000 </r>
       <r>   -15.5328     0.0000    30.0000 </r>
       <r>   -15.3008     0.0000    30.0000 </r>
       <r>   -15.0688     0.0000    30.0000 </r>
       <r>   -14.8368     0.0000    30.0000 </r>
       <r>   -14.6048     0.0000    30.0000 </r>
       <r>   -14.3728     0.0000    30.0000 </r>
       <r>   -14.1408     0.0000    30.0000 </r>
       <r>   -13.9088     0.0000    30.0000 </r>
       <r>   -13.6768     0.0000    30.0000 </r>
       <r>   -13.4448     0.0000    30.0000 </r>
       <r>   -13.2128     5.8321    30.3774 </r>
       <r>   -12.9808     5.2055    32.3598 </r>
       <r>   -12.7488     7.8506    34.0711 </r>
       <r>   -12.5168    10.1919    35.9383 </r>
       <r>   -12.2848     6.9762    38.7220 </r>
       <r>   -12.0528    19.4767    42.8889 </r>
       <r>   -11.8208    18.4024    46.6700 </r>
       <r>   -11.5888     0.0000    48.0000 </r>
       <r>   -11.3568     0.0000    48.0000 </r>
       <r>   -11.1248     0.0000    48.0000 </r>
       <r>   -10.8928    50.0327    53.1808 </r>
       <r>   -10.6608    16.8961    60.0599 </r>
       <r>   -10.4288    12.0302    65.3515 </r>
       <r>   -10.1968     0.0000    66.0000 </r>
       <r>    -9.9648     0.0000    66.0000 </r>
       <r>    -9.7328     0.0000    66.0000 </r>
       <r>    -9.5007     0.0000    66.0000 </r>
       <r>    -9.2687     0.0000    66.0000 </r>
       <r>    -9.0367     0.0000    66.0000 </r>
       <r>    -8.8047     0.0000    66.0000 </r>
       <r>    -8.5727     0.0000    66.0000 </r>
       <r>    -8.3407     0.0000    66.0000 </r>
       <r>    -8.1087     0.0000    66.0000 </r>
       <r>    -7.8767     0.0000    66.0000 </r>
       <r>    -7.6447     0.0000    66.0000 </r>
       <r>    -7.4127     0.0000    66.0000 </r>
       <r>    -7.1807     0.0000    66.0000 </r>
       <r>    -6.9487     0.0000    66.0000 </r>
       <r>    -6.7167     0.0000    66.0000 </r>
       <r>    -6.4847     0.0000    66.0000 </r>
       <r>    -6.2527     0.0000    66.0000 </r>
       <r>    -6.0207     0.0000    66.0000 </r>
       <r>    -5.7887     0.0000    66.0000 </r>
       <r>    -5.5567     0.0000    66.0000 </r>
       <r>    -5.3247     0.0000    66.0000 </r>
       <r>    -5.0927     0.0000    66.0000 </r>
       <r>    -4.8607     0.0000    66.0000 </r>
       <r>    -4.6287     0.0000    66.0000 </r>
       <r>    -4.3967     0.0000    66.0000 </r>
       <r>    -4.1647     0.0000    66.0000 </r>
       <r>    -3.9327     0.0000    66.0000 </r>
       <r>    -3.7007     0.0000    66.0000 </r>
       <r>    -3.4687     0.0000    66.0000 </r>
       <r>    -3.2367     0.0000    66.0000 </r>
       <r>    -3.0047     0.0000    66.0000 </r>
       <r>    -2.7727     0.0000    66.0000 </r>
       <r>    -2.5407     0.0000    66.0000 </r>
       <r>    -2.3086     0.0000    66.0000 </r>
       <r>    -2.0766     0.0000    66.0000 </r>
       <r>    -1.8446     0.0000    66.0000 </r>
       <r>    -1.6126     0.0000    66.0000 </r>
       <r>    -1.3806     0.0000    66.0000 </r>
       <r>    -1.1486     0.0000    66.0000 </r>
       <r>    -0.9166     0.0000    66.0000 </r>
       <r>    -0.6846     2.1433    66.5560 </r>
       <r>    -0.4526     3.5877    67.0698 </r>
       <r>    -0.2206    11.0848    69.6270 </r>
       <r>     0.0114     9.6968    72.6782 </r>
       <r>     0.2434     6.3528    74.4624 </r>
       <r>     0.4754    10.5248    76.3723 </r>
       <r>     0.7074    12.5927    78.9206 </r>
       <r>     0.9394    15.2845    81.9965 </r>
       <r>     1.1714    13.7887    85.4850 </r>
       <r>     1.4034    14.8370    88.8699 </r>
       <r>     1.6354    21.6941    93.1341 </r>
       <r>     1.8674     7.4830    95.6506 </r>
       <r>     2.0994     8.3800    97.4496 </r>
       <r>     2.3314     9.8934    99.5154 </r>
       <r>     2.5634    10.9108   102.1567 </r>
       <r>     2.7954    12.2956   105.3254 </r>
       <r>     3.0274    13.9480   109.1815 </r>
       <r>     3.2594    13.1338   112.7757 </r>
       <r>     3.4914    13.5809   116.1557 </r>
       <r>     3.7234     5.9687   118.0403 </r>
       <r>     3.9554     5.8235   119.7282 </r>
       <r>     4.1874     0.0000   120.0000 </r>
       <r>     4.4194     0.0000   120.0000 </r>
       <r>     4.6514     0.0000   120.0000 </r>
       <r>     4.8835     0.0000   120.0000 </r>
       <r>     5.1155     0.0000   120.0000 </r>
       <r>     5.3475     0.0000   120.0000 </r>
       <r>     5.5795     0.0000   120.0000 </r>
       <r>     5.8115     0.0000   120.0000 </r>
       <r>     6.0435     0.0000   120.0000 </r>
       <r>     6.2755     0.0000   120.0000 </r>
       <r>     6.5075     1.2803   120.0852 </r>
       <r>     6.7395     3.1583   120.6324 </r>
       <r>     6.9715     3.2794   121.4039 </r>
       <r>     7.2035     3.2704   122.1137 </r>
       <r>     7.4355     4.6598   123.0162 </r>
       <r>     7.6675     4.6372   124.1732 </r>
       <r>     7.8995     5.7743   125.4098 </r>
       <r>     8.1315     8.0165   127.0239 </r>
       <r>     8.3635    10.1145   129.1061 </r>
       <r>     8.5955    12.7103   132.0746 </r>
       <r>     8.8275     8.3591   134.2284 </r>
       <r>     9.0595     5.7547   135.9845 </r>
       <r>     9.2915     4.7017   137.1030 </r>
       <r>     9.5235     3.1339   138.2176 </r>
       <r>     9.7555     2.6764   138.7540 </r>
       <r>     9.9875     5.5629   139.6631 </r>
       <r>    10.2195     7.9854   141.2441 </r>
       <r>    10.4515     3.9547   142.4131 </r>
       <r>    10.6835     6.3628   143.5020 </r>
       <r>    10.9155    11.5390   145.4834 </r>
       <r>    11.1475     9.1453   147.5927 </r>
       <r>    11.3795     8.3301   149.8342 </r>
       <r>    11.6115     4.4525   151.3833 </r>
       <r>    11.8435     0.9207   151.9454 </r>
       <r>    12.0756     0.0000   152.0000 </r>
       <r>    12.3076     0.0000   152.0000 </r>
       <r>    12.5396     0.0000   152.0000 </r>
       <r>    12.7716     0.0000   152.0000 </r>
       <r>    13.0036     0.0000   152.0000 </r>
       <r>    13.2356     0.0000   152.0000 </r>
       <r>    13.4676     0.0000   152.0000 </r>
       <r>    13.6996     0.0000   152.0000 </r>
       <r>    13.9316     0.0000   152.0000 </r>
       <r>    14.1636     0.0000   152.0000 </r>
       <r>    14.3956     0.0000   152.0000 </r>
       <r>    14.6276     0.0000   152.0000 </r>
       <r>    14.8596     0.0000   152.0000 </r>
       <r>    15.0916     0.0000   152.0000 </r>
      </set>
     </set>
    </array>
   </total>
  </dos>
 </calculation>
 <structure name="finalpos" >
  <crystal>
   <varray name="basis" >
    <v>       0.00000000       4.02308639      -8.04226390 </v>
    <v>       0.00000000      -8.04226390       4.02308639 </v>
    <v>      -4.02682642       0.00000000       0.00000000 </v>
   </varray>
   <i name="volume">    195.27202580 </i>
   <varray name="rec_basis" >
    <v>       0.00000000      -0.08296258      -0.16584455 </v>
    <v>       0.00000000      -0.16584455      -0.08296258 </v>
    <v>      -0.24833452       0.00000000       0.00000000 </v>
   </varray>
  </crystal>
  <varray name="positions" >
   <v>       0.16606271       0.83393729       0.50000000 </v>
   <v>       0.83393729       0.16606271       0.50000000 </v>
   <v>       0.16535691       0.83464309       0.00000000 </v>
   <v>       0.00000000       0.50000000       0.50000000 </v>
   <v>       0.83014820       0.66451168       0.50000000 </v>
   <v>       0.83464309       0.16535691       0.00000000 </v>
   <v>       0.66451168       0.83014820       0.50000000 </v>
   <v>       0.50000000       0.00000000       0.50000000 </v>
   <v>       0.50000000       0.50000000       0.00000000 </v>
   <v>       0.33548832       0.16985180       0.50000000 </v>
   <v>       0.16985180       0.33548832       0.50000000 </v>
   <v>       0.65911263       0.34088737       0.00000000 </v>
   <v>       0.34088737       0.65911263       0.00000000 </v>
   <v>       0.00000000       0.00000000       0.00000000 </v>
   <v>       0.50000000       0.50000000       0.50000000 </v>
  </varray>
 </structure>
</modeling>
