  20  20   0   0
  0.1309104E+02  0.9876602E-09  0.9876602E-09  0.9876602E-09  0.5000000E-15
  1.000000000000000E-004
  CAR 
 unknown system                          
     14.68076797    -54.26624088  301      7.28318827      1.00000000
    -54.266  0.0000E+00  0.0000E+00
    -54.036  0.0000E+00  0.0000E+00
    -53.807  0.0000E+00  0.0000E+00
    -53.577  0.0000E+00  0.0000E+00
    -53.347  0.0000E+00  0.0000E+00
    -53.117  0.0000E+00  0.0000E+00
    -52.887  0.0000E+00  0.0000E+00
    -52.657  0.0000E+00  0.0000E+00
    -52.428  0.0000E+00  0.0000E+00
    -52.198  0.0000E+00  0.0000E+00
    -51.968  0.0000E+00  0.0000E+00
    -51.738  0.0000E+00  0.0000E+00
    -51.508  0.0000E+00  0.0000E+00
    -51.279  0.0000E+00  0.0000E+00
    -51.049  0.0000E+00  0.2000E+01
    -50.819  0.0000E+00  0.2000E+01
    -50.589  0.0000E+00  0.2000E+01
    -50.359  0.0000E+00  0.2000E+01
    -50.129  0.0000E+00  0.2000E+01
    -49.900  0.0000E+00  0.2000E+01
    -49.670  0.0000E+00  0.2000E+01
    -49.440  0.0000E+00  0.6000E+01
    -49.210  0.0000E+00  0.8000E+01
    -48.980  0.0000E+00  0.8000E+01
    -48.750  0.0000E+00  0.8000E+01
    -48.521  0.0000E+00  0.8000E+01
    -48.291  0.0000E+00  0.8000E+01
    -48.061  0.0000E+00  0.8000E+01
    -47.831  0.0000E+00  0.8000E+01
    -47.601  0.0000E+00  0.8000E+01
    -47.372  0.0000E+00  0.8000E+01
    -47.142  0.0000E+00  0.8000E+01
    -46.912  0.0000E+00  0.8000E+01
    -46.682  0.0000E+00  0.8000E+01
    -46.452  0.0000E+00  0.8000E+01
    -46.222  0.0000E+00  0.8000E+01
    -45.993  0.0000E+00  0.8000E+01
    -45.763  0.0000E+00  0.8000E+01
    -45.533  0.0000E+00  0.8000E+01
    -45.303  0.0000E+00  0.8000E+01
    -45.073  0.0000E+00  0.8000E+01
    -44.843  0.0000E+00  0.8000E+01
    -44.614  0.0000E+00  0.8000E+01
    -44.384  0.0000E+00  0.8000E+01
    -44.154  0.0000E+00  0.8000E+01
    -43.924  0.0000E+00  0.8000E+01
    -43.694  0.0000E+00  0.8000E+01
    -43.465  0.0000E+00  0.8000E+01
    -43.235  0.0000E+00  0.8000E+01
    -43.005  0.0000E+00  0.8000E+01
    -42.775  0.0000E+00  0.8000E+01
    -42.545  0.0000E+00  0.8000E+01
    -42.315  0.0000E+00  0.8000E+01
    -42.086  0.0000E+00  0.8000E+01
    -41.856  0.0000E+00  0.8000E+01
    -41.626  0.0000E+00  0.8000E+01
    -41.396  0.0000E+00  0.8000E+01
    -41.166  0.0000E+00  0.8000E+01
    -40.936  0.0000E+00  0.8000E+01
    -40.707  0.0000E+00  0.8000E+01
    -40.477  0.0000E+00  0.8000E+01
    -40.247  0.0000E+00  0.8000E+01
    -40.017  0.0000E+00  0.8000E+01
    -39.787  0.0000E+00  0.8000E+01
    -39.558  0.0000E+00  0.8000E+01
    -39.328  0.0000E+00  0.8000E+01
    -39.098  0.0000E+00  0.8000E+01
    -38.868  0.0000E+00  0.8000E+01
    -38.638  0.0000E+00  0.8000E+01
    -38.408  0.0000E+00  0.8000E+01
    -38.179  0.0000E+00  0.8000E+01
    -37.949  0.0000E+00  0.8000E+01
    -37.719  0.0000E+00  0.8000E+01
    -37.489  0.0000E+00  0.8000E+01
    -37.259  0.0000E+00  0.8000E+01
    -37.029  0.0000E+00  0.8000E+01
    -36.800  0.0000E+00  0.8000E+01
    -36.570  0.0000E+00  0.8000E+01
    -36.340  0.0000E+00  0.8000E+01
    -36.110  0.0000E+00  0.8000E+01
    -35.880  0.0000E+00  0.8000E+01
    -35.651  0.0000E+00  0.8000E+01
    -35.421  0.0000E+00  0.8000E+01
    -35.191  0.0000E+00  0.8000E+01
    -34.961  0.0000E+00  0.8000E+01
    -34.731  0.0000E+00  0.8000E+01
    -34.501  0.0000E+00  0.8000E+01
    -34.272  0.0000E+00  0.8000E+01
    -34.042  0.0000E+00  0.8000E+01
    -33.812  0.0000E+00  0.8000E+01
    -33.582  0.0000E+00  0.8000E+01
    -33.352  0.0000E+00  0.8000E+01
    -33.122  0.0000E+00  0.8000E+01
    -32.893  0.0000E+00  0.8000E+01
    -32.663  0.0000E+00  0.8000E+01
    -32.433  0.0000E+00  0.8000E+01
    -32.203  0.0000E+00  0.8000E+01
    -31.973  0.0000E+00  0.8000E+01
    -31.744  0.0000E+00  0.8000E+01
    -31.514  0.0000E+00  0.8000E+01
    -31.284  0.0000E+00  0.8000E+01
    -31.054  0.0000E+00  0.8000E+01
    -30.824  0.0000E+00  0.8000E+01
    -30.594  0.0000E+00  0.8000E+01
    -30.365  0.0000E+00  0.8000E+01
    -30.135  0.0000E+00  0.8000E+01
    -29.905  0.0000E+00  0.8000E+01
    -29.675  0.0000E+00  0.8000E+01
    -29.445  0.0000E+00  0.8000E+01
    -29.215  0.0000E+00  0.8000E+01
    -28.986  0.0000E+00  0.1200E+02
    -28.756  0.0000E+00  0.1600E+02
    -28.526  0.0000E+00  0.1600E+02
    -28.296  0.0000E+00  0.1600E+02
    -28.066  0.0000E+00  0.1600E+02
    -27.837  0.0000E+00  0.1600E+02
    -27.607  0.0000E+00  0.1600E+02
    -27.377  0.0000E+00  0.2200E+02
    -27.147  0.0000E+00  0.2200E+02
    -26.917  0.0000E+00  0.2200E+02
    -26.687  0.0000E+00  0.2200E+02
    -26.458  0.0000E+00  0.2200E+02
    -26.228  0.0000E+00  0.2200E+02
    -25.998  0.0000E+00  0.2200E+02
    -25.768  0.3651E+04  0.2941E+02
    -25.538  0.0000E+00  0.4000E+02
    -25.308  0.0000E+00  0.4000E+02
    -25.079  0.0000E+00  0.4000E+02
    -24.849  0.0000E+00  0.4000E+02
    -24.619  0.0000E+00  0.4000E+02
    -24.389  0.0000E+00  0.4000E+02
    -24.159  0.0000E+00  0.4000E+02
    -23.930  0.0000E+00  0.4000E+02
    -23.700  0.0000E+00  0.4000E+02
    -23.470  0.0000E+00  0.4000E+02
    -23.240  0.0000E+00  0.4000E+02
    -23.010  0.0000E+00  0.4000E+02
    -22.780  0.0000E+00  0.4000E+02
    -22.551  0.0000E+00  0.4000E+02
    -22.321  0.0000E+00  0.4000E+02
    -22.091  0.0000E+00  0.4000E+02
    -21.861  0.0000E+00  0.4000E+02
    -21.631  0.0000E+00  0.4000E+02
    -21.401  0.0000E+00  0.4000E+02
    -21.172  0.0000E+00  0.4000E+02
    -20.942  0.0000E+00  0.4000E+02
    -20.712  0.0000E+00  0.4000E+02
    -20.482  0.0000E+00  0.4000E+02
    -20.252  0.0000E+00  0.4000E+02
    -20.023  0.0000E+00  0.4000E+02
    -19.793  0.0000E+00  0.4000E+02
    -19.563  0.0000E+00  0.4000E+02
    -19.333  0.0000E+00  0.4000E+02
    -19.103  0.0000E+00  0.4000E+02
    -18.873  0.0000E+00  0.4000E+02
    -18.644  0.0000E+00  0.4000E+02
    -18.414  0.0000E+00  0.4000E+02
    -18.184  0.0000E+00  0.4000E+02
    -17.954  0.0000E+00  0.4000E+02
    -17.724  0.0000E+00  0.4000E+02
    -17.495  0.0000E+00  0.4000E+02
    -17.265  0.0000E+00  0.4000E+02
    -17.035  0.0000E+00  0.4000E+02
    -16.805  0.0000E+00  0.4000E+02
    -16.575  0.0000E+00  0.4000E+02
    -16.345  0.0000E+00  0.4000E+02
    -16.116  0.0000E+00  0.4000E+02
    -15.886  0.0000E+00  0.4000E+02
    -15.656  0.0000E+00  0.4000E+02
    -15.426  0.0000E+00  0.4000E+02
    -15.196  0.0000E+00  0.4000E+02
    -14.966  0.0000E+00  0.4000E+02
    -14.737  0.0000E+00  0.4000E+02
    -14.507  0.0000E+00  0.4000E+02
    -14.277  0.0000E+00  0.4000E+02
    -14.047  0.0000E+00  0.4000E+02
    -13.817  0.0000E+00  0.4000E+02
    -13.588  0.0000E+00  0.4000E+02
    -13.358  0.0000E+00  0.4000E+02
    -13.128  0.1183E+02  0.4049E+02
    -12.898  0.1767E+02  0.4307E+02
    -12.668  0.7482E+01  0.4554E+02
    -12.438  0.2029E+02  0.4798E+02
    -12.209  0.1141E+02  0.5211E+02
    -11.979  0.3114E+02  0.5743E+02
    -11.749  0.6909E+01  0.6383E+02
    -11.519  0.0000E+00  0.6400E+02
    -11.289  0.0000E+00  0.6400E+02
    -11.059  0.1631E+02  0.6419E+02
    -10.830  0.3642E+02  0.7394E+02
    -10.600  0.1496E+02  0.8295E+02
    -10.370  0.0000E+00  0.8800E+02
    -10.140  0.0000E+00  0.8800E+02
     -9.910  0.0000E+00  0.8800E+02
     -9.681  0.0000E+00  0.8800E+02
     -9.451  0.0000E+00  0.8800E+02
     -9.221  0.0000E+00  0.8800E+02
     -8.991  0.0000E+00  0.8800E+02
     -8.761  0.0000E+00  0.8800E+02
     -8.531  0.0000E+00  0.8800E+02
     -8.302  0.0000E+00  0.8800E+02
     -8.072  0.0000E+00  0.8800E+02
     -7.842  0.0000E+00  0.8800E+02
     -7.612  0.0000E+00  0.8800E+02
     -7.382  0.0000E+00  0.8800E+02
     -7.152  0.0000E+00  0.8800E+02
     -6.923  0.0000E+00  0.8800E+02
     -6.693  0.0000E+00  0.8800E+02
     -6.463  0.0000E+00  0.8800E+02
     -6.233  0.0000E+00  0.8800E+02
     -6.003  0.0000E+00  0.8800E+02
     -5.774  0.0000E+00  0.8800E+02
     -5.544  0.0000E+00  0.8800E+02
     -5.314  0.0000E+00  0.8800E+02
     -5.084  0.0000E+00  0.8800E+02
     -4.854  0.0000E+00  0.8800E+02
     -4.624  0.0000E+00  0.8800E+02
     -4.395  0.0000E+00  0.8800E+02
     -4.165  0.0000E+00  0.8800E+02
     -3.935  0.0000E+00  0.8800E+02
     -3.705  0.0000E+00  0.8800E+02
     -3.475  0.0000E+00  0.8800E+02
     -3.245  0.0000E+00  0.8800E+02
     -3.016  0.0000E+00  0.8800E+02
     -2.786  0.0000E+00  0.8800E+02
     -2.556  0.0000E+00  0.8800E+02
     -2.326  0.0000E+00  0.8800E+02
     -2.096  0.0000E+00  0.8800E+02
     -1.867  0.0000E+00  0.8800E+02
     -1.637  0.0000E+00  0.8800E+02
     -1.407  0.0000E+00  0.8800E+02
     -1.177  0.0000E+00  0.8800E+02
     -0.947  0.0000E+00  0.8800E+02
     -0.717  0.0000E+00  0.8800E+02
     -0.488  0.6886E+00  0.8800E+02
     -0.258  0.7114E+01  0.9227E+02
     -0.028  0.6480E+01  0.9539E+02
      0.202  0.2163E+02  0.9777E+02
      0.432  0.1482E+02  0.1005E+03
      0.662  0.1424E+02  0.1050E+03
      0.891  0.1508E+02  0.1088E+03
      1.121  0.8709E+01  0.1121E+03
      1.351  0.1702E+02  0.1164E+03
      1.581  0.2753E+02  0.1217E+03
      1.811  0.9882E+01  0.1269E+03
      2.040  0.9277E+01  0.1291E+03
      2.270  0.1131E+02  0.1311E+03
      2.500  0.1482E+02  0.1346E+03
      2.730  0.2068E+02  0.1380E+03
      2.960  0.2500E+02  0.1434E+03
      3.190  0.2593E+02  0.1488E+03
      3.419  0.1927E+02  0.1540E+03
      3.649  0.7382E+01  0.1567E+03
      3.879  0.1109E+02  0.1589E+03
      4.109  0.0000E+00  0.1600E+03
      4.339  0.0000E+00  0.1600E+03
      4.569  0.0000E+00  0.1600E+03
      4.798  0.0000E+00  0.1600E+03
      5.028  0.0000E+00  0.1600E+03
      5.258  0.0000E+00  0.1600E+03
      5.488  0.0000E+00  0.1600E+03
      5.718  0.0000E+00  0.1600E+03
      5.947  0.0000E+00  0.1600E+03
      6.177  0.0000E+00  0.1600E+03
      6.407  0.2495E-01  0.1600E+03
      6.637  0.2099E+01  0.1602E+03
      6.867  0.4390E+01  0.1610E+03
      7.097  0.5386E+01  0.1621E+03
      7.326  0.3529E+01  0.1632E+03
      7.556  0.4980E+01  0.1641E+03
      7.786  0.8090E+01  0.1654E+03
      8.016  0.1167E+02  0.1677E+03
      8.246  0.6239E+01  0.1694E+03
      8.476  0.8693E+01  0.1713E+03
      8.705  0.2639E+02  0.1747E+03
      8.935  0.1054E+02  0.1793E+03
      9.165  0.3705E+01  0.1807E+03
      9.395  0.1222E+02  0.1828E+03
      9.625  0.1132E+01  0.1840E+03
      9.854  0.4218E+01  0.1844E+03
     10.084  0.8619E+01  0.1861E+03
     10.314  0.5532E+01  0.1880E+03
     10.544  0.4769E+01  0.1901E+03
     10.774  0.8715E+01  0.1916E+03
     11.004  0.1248E+02  0.1941E+03
     11.233  0.1389E+02  0.1974E+03
     11.463  0.4525E+01  0.1998E+03
     11.693  0.0000E+00  0.2000E+03
     11.923  0.0000E+00  0.2000E+03
     12.153  0.0000E+00  0.2000E+03
     12.383  0.0000E+00  0.2000E+03
     12.612  0.0000E+00  0.2000E+03
     12.842  0.0000E+00  0.2000E+03
     13.072  0.0000E+00  0.2000E+03
     13.302  0.0000E+00  0.2000E+03
     13.532  0.0000E+00  0.2000E+03
     13.761  0.0000E+00  0.2000E+03
     13.991  0.0000E+00  0.2000E+03
     14.221  0.0000E+00  0.2000E+03
     14.451  0.0000E+00  0.2000E+03
     14.681  0.0000E+00  0.2000E+03
