 running on   40 total cores
 distrk:  each k-point on   40 cores,    1 groups
 distr:  one band on   10 cores,    4 groups
 using from now: INCAR     
 vasp.5.4.4.18Apr17-6-g9f103f2a35 (build Oct 23 2017 21:22:35) complex          
  
 POSCAR found :  3 types and       5 ions
 scaLAPACK will be used
 LDA part: xc-table for Pade appr. of Perdew
 POSCAR, INCAR and KPOINTS ok, starting setup
 FFT: planning ...
 WAVECAR not read
 entering main loop
       N       E                     dE             d eps       ncg     rms          rms(c)
DAV:   1     0.387162720065E+03    0.38716E+03   -0.23311E+04  1680   0.168E+03
DAV:   2    -0.201804368021E+02   -0.40734E+03   -0.40354E+03  2152   0.534E+02
DAV:   3    -0.463858154026E+02   -0.26205E+02   -0.26074E+02  2824   0.119E+02
DAV:   4    -0.472410838186E+02   -0.85527E+00   -0.85211E+00  2544   0.190E+01
DAV:   5    -0.472660545992E+02   -0.24971E-01   -0.24860E-01  2544   0.256E+00    0.214E+01
DAV:   6    -0.406815376929E+02    0.65845E+01   -0.41510E+01  2408   0.446E+01    0.142E+01
DAV:   7    -0.406603600236E+02    0.21178E-01   -0.22655E+00  2536   0.112E+01    0.833E+00
DAV:   8    -0.406642179163E+02   -0.38579E-02   -0.26705E-01  2416   0.429E+00    0.813E-01
DAV:   9    -0.406645890680E+02   -0.37115E-03   -0.42105E-02  2840   0.138E+00    0.296E-01
DAV:  10    -0.406652173628E+02   -0.62829E-03   -0.39682E-03  2440   0.546E-01    0.719E-02
DAV:  11    -0.406652632841E+02   -0.45921E-04   -0.22826E-04  2552   0.147E-01    0.344E-02
DAV:  12    -0.406652842293E+02   -0.20945E-04   -0.60595E-05  2160   0.649E-02    0.115E-02
DAV:  13    -0.406652880898E+02   -0.38605E-05   -0.88281E-06  1520   0.264E-02
   1 F= -.40665288E+02 E0= -.40665288E+02  d E =-.406653E+02
 curvature:   0.00 expect dE= 0.000E+00 dE for cont linesearch  0.000E+00
 trial: gam= 0.00000 g(F)=  0.000E+00 g(S)=  0.154E+01 ort = 0.000E+00 (trialstep = 0.100E+01)
 search vector abs. value=  0.154E+01
 bond charge predicted
       N       E                     dE             d eps       ncg     rms          rms(c)
DAV:   1    -0.503284719539E+02   -0.96632E+01   -0.32989E+02  2016   0.176E+02    0.297E+01
DAV:   2    -0.427605666228E+02    0.75679E+01   -0.38130E+01  2824   0.451E+01    0.120E+01
DAV:   3    -0.405263269729E+02    0.22342E+01   -0.67057E+00  2928   0.200E+01    0.868E+00
DAV:   4    -0.403766752769E+02    0.14965E+00   -0.12677E+00  2752   0.632E+00    0.657E+00
DAV:   5    -0.404650741478E+02   -0.88399E-01   -0.48963E-01  3056   0.377E+00    0.358E+00
DAV:   6    -0.405010373350E+02   -0.35963E-01   -0.28313E-01  2896   0.301E+00    0.733E-01
DAV:   7    -0.404984522847E+02    0.25851E-02   -0.23682E-02  2936   0.102E+00    0.381E-01
DAV:   8    -0.404995270269E+02   -0.10747E-02   -0.41154E-03  2288   0.483E-01    0.973E-02
DAV:   9    -0.404994581228E+02    0.68904E-04   -0.11779E-03  2792   0.236E-01    0.577E-02
DAV:  10    -0.404994540575E+02    0.40653E-05   -0.82847E-05  2480   0.678E-02
   2 F= -.40499454E+02 E0= -.40499454E+02  d E =0.165834E+00
 trial-energy change:    0.165834  1 .order    0.065474   -1.541221    1.672169
 step:   0.4336(harm=  0.4796)  dis= 0.00000  next Energy=   -40.991246 (dE=-0.326E+00)
 bond charge predicted
       N       E                     dE             d eps       ncg     rms          rms(c)
DAV:   1    -0.445802933081E+02   -0.40808E+01   -0.11109E+02  2128   0.101E+02    0.170E+01
DAV:   2    -0.415003587112E+02    0.30799E+01   -0.11455E+01  2040   0.266E+01    0.521E+00
DAV:   3    -0.409272014458E+02    0.57316E+00   -0.20843E+00  3000   0.122E+01    0.212E+00
DAV:   4    -0.409325282257E+02   -0.53268E-02   -0.31206E-01  2872   0.292E+00    0.144E+00
DAV:   5    -0.409587867871E+02   -0.26259E-01   -0.46286E-02  3056   0.109E+00    0.834E-01
DAV:   6    -0.409745790123E+02   -0.15792E-01   -0.33329E-02  3016   0.980E-01    0.287E-01
DAV:   7    -0.409755450702E+02   -0.96606E-03   -0.30025E-03  2392   0.360E-01    0.678E-02
DAV:   8    -0.409756121435E+02   -0.67073E-04   -0.53007E-04  2816   0.132E-01    0.256E-02
DAV:   9    -0.409756123530E+02   -0.20957E-06   -0.22748E-05  1888   0.322E-02
   3 F= -.40975612E+02 E0= -.40975612E+02  d E =-.310324E+00
 curvature:  -0.24 expect dE=-0.224E-03 dE for cont linesearch -0.224E-03
 ZBRENT: interpolating
 opt :   0.4231  next Energy=   -40.975812 (dE=-0.311E+00)
 bond charge predicted
       N       E                     dE             d eps       ncg     rms          rms(c)
DAV:   1    -0.409770339436E+02   -0.14218E-02   -0.38169E-02  2216   0.190E+00    0.273E-01
DAV:   2    -0.409760333613E+02    0.10006E-02   -0.40133E-03  2272   0.498E-01    0.100E-01
DAV:   3    -0.409758006215E+02    0.23274E-03   -0.65086E-04  3040   0.232E-01    0.403E-02
DAV:   4    -0.409758032824E+02   -0.26609E-05   -0.14241E-04  2760   0.633E-02    0.336E-02
DAV:   5    -0.409758148941E+02   -0.11612E-04   -0.98884E-06  1552   0.214E-02    0.214E-02
DAV:   6    -0.409758270007E+02   -0.12107E-04   -0.34180E-05  2360   0.289E-02    0.717E-03
DAV:   7    -0.409758272001E+02   -0.19939E-06   -0.20976E-06  1264   0.124E-02
   4 F= -.40975827E+02 E0= -.40975827E+02  d E =-.310539E+00
 curvature:  -0.21 expect dE=-0.255E-05 dE for cont linesearch -0.255E-05
 trial: gam= 0.00000 g(F)=  0.991E-64 g(S)=  0.120E-04 ort =-0.431E-02 (trialstep = 0.885E+00)
 search vector abs. value=  0.120E-04
 reached required accuracy - stopping structural energy minimisation
 writing wavefunctions
