       N       E                     dE             d eps       ncg     rms          rms(c)
DAV:   1    -0.163348340924E+03   -0.16335E+03   -0.43617E-01  3800   0.509E+00    0.981E-02
DAV:   2    -0.163348451356E+03   -0.11043E-03   -0.33822E-04  4328   0.111E-01    0.631E-02
DAV:   3    -0.163348327678E+03    0.12368E-03   -0.67254E-04  4396   0.697E-02    0.686E-02
DAV:   4    -0.163348435472E+03   -0.10779E-03   -0.42124E-04  4096   0.540E-02    0.574E-03
DAV:   5    -0.163348426927E+03    0.85457E-05   -0.59596E-06  2672   0.137E-02
   1 F= -.16334843E+03 E0= -.16334843E+03  d E =0.000000E+00
