  15  15   0   0
  0.1262429E+02  0.5629899E-09  0.5629899E-09  0.6898689E-09  0.5000000E-15
  1.000000000000000E-004
  CAR 
 unknown system                          
     14.01572644    -54.97652361  301      6.65629623      1.00000000
    -54.977  0.0000E+00  0.0000E+00
    -54.747  0.0000E+00  0.0000E+00
    -54.517  0.0000E+00  0.0000E+00
    -54.287  0.0000E+00  0.0000E+00
    -54.057  0.0000E+00  0.0000E+00
    -53.827  0.0000E+00  0.0000E+00
    -53.597  0.0000E+00  0.0000E+00
    -53.367  0.0000E+00  0.0000E+00
    -53.137  0.0000E+00  0.0000E+00
    -52.907  0.0000E+00  0.0000E+00
    -52.677  0.0000E+00  0.0000E+00
    -52.447  0.0000E+00  0.0000E+00
    -52.217  0.0000E+00  0.0000E+00
    -51.987  0.0000E+00  0.0000E+00
    -51.757  0.0000E+00  0.4000E+01
    -51.527  0.0000E+00  0.4000E+01
    -51.297  0.0000E+00  0.4000E+01
    -51.067  0.0000E+00  0.4000E+01
    -50.837  0.0000E+00  0.4000E+01
    -50.607  0.0000E+00  0.4000E+01
    -50.377  0.0000E+00  0.4000E+01
    -50.147  0.0000E+00  0.6000E+01
    -49.917  0.0000E+00  0.6000E+01
    -49.687  0.0000E+00  0.6000E+01
    -49.457  0.0000E+00  0.6000E+01
    -49.227  0.0000E+00  0.6000E+01
    -48.997  0.0000E+00  0.6000E+01
    -48.767  0.0000E+00  0.6000E+01
    -48.537  0.0000E+00  0.6000E+01
    -48.307  0.0000E+00  0.6000E+01
    -48.077  0.0000E+00  0.6000E+01
    -47.847  0.0000E+00  0.6000E+01
    -47.617  0.0000E+00  0.6000E+01
    -47.387  0.0000E+00  0.6000E+01
    -47.157  0.0000E+00  0.6000E+01
    -46.927  0.0000E+00  0.6000E+01
    -46.697  0.0000E+00  0.6000E+01
    -46.467  0.0000E+00  0.6000E+01
    -46.238  0.0000E+00  0.6000E+01
    -46.008  0.0000E+00  0.6000E+01
    -45.778  0.0000E+00  0.6000E+01
    -45.548  0.0000E+00  0.6000E+01
    -45.318  0.0000E+00  0.6000E+01
    -45.088  0.0000E+00  0.6000E+01
    -44.858  0.0000E+00  0.6000E+01
    -44.628  0.0000E+00  0.6000E+01
    -44.398  0.0000E+00  0.6000E+01
    -44.168  0.0000E+00  0.6000E+01
    -43.938  0.0000E+00  0.6000E+01
    -43.708  0.0000E+00  0.6000E+01
    -43.478  0.0000E+00  0.6000E+01
    -43.248  0.0000E+00  0.6000E+01
    -43.018  0.0000E+00  0.6000E+01
    -42.788  0.0000E+00  0.6000E+01
    -42.558  0.0000E+00  0.6000E+01
    -42.328  0.0000E+00  0.6000E+01
    -42.098  0.0000E+00  0.6000E+01
    -41.868  0.0000E+00  0.6000E+01
    -41.638  0.0000E+00  0.6000E+01
    -41.408  0.0000E+00  0.6000E+01
    -41.178  0.0000E+00  0.6000E+01
    -40.948  0.0000E+00  0.6000E+01
    -40.718  0.0000E+00  0.6000E+01
    -40.488  0.0000E+00  0.6000E+01
    -40.258  0.0000E+00  0.6000E+01
    -40.028  0.0000E+00  0.6000E+01
    -39.798  0.0000E+00  0.6000E+01
    -39.568  0.0000E+00  0.6000E+01
    -39.338  0.0000E+00  0.6000E+01
    -39.108  0.0000E+00  0.6000E+01
    -38.878  0.0000E+00  0.6000E+01
    -38.648  0.0000E+00  0.6000E+01
    -38.418  0.0000E+00  0.6000E+01
    -38.188  0.0000E+00  0.6000E+01
    -37.958  0.0000E+00  0.6000E+01
    -37.728  0.0000E+00  0.6000E+01
    -37.498  0.0000E+00  0.6000E+01
    -37.269  0.0000E+00  0.6000E+01
    -37.039  0.0000E+00  0.6000E+01
    -36.809  0.0000E+00  0.6000E+01
    -36.579  0.0000E+00  0.6000E+01
    -36.349  0.0000E+00  0.6000E+01
    -36.119  0.0000E+00  0.6000E+01
    -35.889  0.0000E+00  0.6000E+01
    -35.659  0.0000E+00  0.6000E+01
    -35.429  0.0000E+00  0.6000E+01
    -35.199  0.0000E+00  0.6000E+01
    -34.969  0.0000E+00  0.6000E+01
    -34.739  0.0000E+00  0.6000E+01
    -34.509  0.0000E+00  0.6000E+01
    -34.279  0.0000E+00  0.6000E+01
    -34.049  0.0000E+00  0.6000E+01
    -33.819  0.0000E+00  0.6000E+01
    -33.589  0.0000E+00  0.6000E+01
    -33.359  0.0000E+00  0.6000E+01
    -33.129  0.0000E+00  0.6000E+01
    -32.899  0.0000E+00  0.6000E+01
    -32.669  0.0000E+00  0.6000E+01
    -32.439  0.0000E+00  0.6000E+01
    -32.209  0.0000E+00  0.6000E+01
    -31.979  0.0000E+00  0.6000E+01
    -31.749  0.0000E+00  0.6000E+01
    -31.519  0.0000E+00  0.6000E+01
    -31.289  0.0000E+00  0.6000E+01
    -31.059  0.0000E+00  0.6000E+01
    -30.829  0.0000E+00  0.6000E+01
    -30.599  0.0000E+00  0.6000E+01
    -30.369  0.0000E+00  0.6000E+01
    -30.139  0.0000E+00  0.6000E+01
    -29.909  0.0000E+00  0.6000E+01
    -29.679  0.0000E+00  0.6000E+01
    -29.449  0.0000E+00  0.6000E+01
    -29.219  0.0000E+00  0.6000E+01
    -28.989  0.0000E+00  0.6000E+01
    -28.759  0.0000E+00  0.1200E+02
    -28.529  0.0000E+00  0.1200E+02
    -28.300  0.0000E+00  0.1200E+02
    -28.070  0.0000E+00  0.2400E+02
    -27.840  0.0000E+00  0.2400E+02
    -27.610  0.0000E+00  0.2400E+02
    -27.380  0.0000E+00  0.2400E+02
    -27.150  0.0000E+00  0.2400E+02
    -26.920  0.0000E+00  0.2400E+02
    -26.690  0.0000E+00  0.2400E+02
    -26.460  0.0000E+00  0.3000E+02
    -26.230  0.0000E+00  0.3000E+02
    -26.000  0.0000E+00  0.3000E+02
    -25.770  0.0000E+00  0.3000E+02
    -25.540  0.0000E+00  0.3000E+02
    -25.310  0.0000E+00  0.3000E+02
    -25.080  0.0000E+00  0.3000E+02
    -24.850  0.0000E+00  0.3000E+02
    -24.620  0.0000E+00  0.3000E+02
    -24.390  0.0000E+00  0.3000E+02
    -24.160  0.0000E+00  0.3000E+02
    -23.930  0.0000E+00  0.3000E+02
    -23.700  0.0000E+00  0.3000E+02
    -23.470  0.0000E+00  0.3000E+02
    -23.240  0.0000E+00  0.3000E+02
    -23.010  0.0000E+00  0.3000E+02
    -22.780  0.0000E+00  0.3000E+02
    -22.550  0.0000E+00  0.3000E+02
    -22.320  0.0000E+00  0.3000E+02
    -22.090  0.0000E+00  0.3000E+02
    -21.860  0.0000E+00  0.3000E+02
    -21.630  0.0000E+00  0.3000E+02
    -21.400  0.0000E+00  0.3000E+02
    -21.170  0.0000E+00  0.3000E+02
    -20.940  0.0000E+00  0.3000E+02
    -20.710  0.0000E+00  0.3000E+02
    -20.480  0.0000E+00  0.3000E+02
    -20.250  0.0000E+00  0.3000E+02
    -20.020  0.0000E+00  0.3000E+02
    -19.790  0.0000E+00  0.3000E+02
    -19.561  0.0000E+00  0.3000E+02
    -19.331  0.0000E+00  0.3000E+02
    -19.101  0.0000E+00  0.3000E+02
    -18.871  0.0000E+00  0.3000E+02
    -18.641  0.0000E+00  0.3000E+02
    -18.411  0.0000E+00  0.3000E+02
    -18.181  0.0000E+00  0.3000E+02
    -17.951  0.0000E+00  0.3000E+02
    -17.721  0.0000E+00  0.3000E+02
    -17.491  0.0000E+00  0.3000E+02
    -17.261  0.0000E+00  0.3000E+02
    -17.031  0.0000E+00  0.3000E+02
    -16.801  0.0000E+00  0.3000E+02
    -16.571  0.0000E+00  0.3000E+02
    -16.341  0.0000E+00  0.3000E+02
    -16.111  0.0000E+00  0.3000E+02
    -15.881  0.0000E+00  0.3000E+02
    -15.651  0.0000E+00  0.3000E+02
    -15.421  0.0000E+00  0.3000E+02
    -15.191  0.0000E+00  0.3000E+02
    -14.961  0.0000E+00  0.3000E+02
    -14.731  0.0000E+00  0.3000E+02
    -14.501  0.0000E+00  0.3000E+02
    -14.271  0.0000E+00  0.3000E+02
    -14.041  0.0000E+00  0.3000E+02
    -13.811  0.0000E+00  0.3000E+02
    -13.581  0.0000E+00  0.3000E+02
    -13.351  0.3391E+01  0.3010E+02
    -13.121  0.4719E+01  0.3208E+02
    -12.891  0.3726E+01  0.3399E+02
    -12.661  0.4313E+01  0.3517E+02
    -12.431  0.1178E+02  0.3770E+02
    -12.201  0.3500E+02  0.4165E+02
    -11.971  0.5571E+01  0.4785E+02
    -11.741  0.0000E+00  0.4800E+02
    -11.511  0.0000E+00  0.4800E+02
    -11.281  0.0000E+00  0.4800E+02
    -11.051  0.7554E+01  0.4833E+02
    -10.821  0.2624E+02  0.5590E+02
    -10.592  0.3874E+02  0.6238E+02
    -10.362  0.0000E+00  0.6600E+02
    -10.132  0.0000E+00  0.6600E+02
     -9.902  0.0000E+00  0.6600E+02
     -9.672  0.0000E+00  0.6600E+02
     -9.442  0.0000E+00  0.6600E+02
     -9.212  0.0000E+00  0.6600E+02
     -8.982  0.0000E+00  0.6600E+02
     -8.752  0.0000E+00  0.6600E+02
     -8.522  0.0000E+00  0.6600E+02
     -8.292  0.0000E+00  0.6600E+02
     -8.062  0.0000E+00  0.6600E+02
     -7.832  0.0000E+00  0.6600E+02
     -7.602  0.0000E+00  0.6600E+02
     -7.372  0.0000E+00  0.6600E+02
     -7.142  0.0000E+00  0.6600E+02
     -6.912  0.0000E+00  0.6600E+02
     -6.682  0.0000E+00  0.6600E+02
     -6.452  0.0000E+00  0.6600E+02
     -6.222  0.0000E+00  0.6600E+02
     -5.992  0.0000E+00  0.6600E+02
     -5.762  0.0000E+00  0.6600E+02
     -5.532  0.0000E+00  0.6600E+02
     -5.302  0.0000E+00  0.6600E+02
     -5.072  0.0000E+00  0.6600E+02
     -4.842  0.0000E+00  0.6600E+02
     -4.612  0.0000E+00  0.6600E+02
     -4.382  0.0000E+00  0.6600E+02
     -4.152  0.0000E+00  0.6600E+02
     -3.922  0.0000E+00  0.6600E+02
     -3.692  0.0000E+00  0.6600E+02
     -3.462  0.0000E+00  0.6600E+02
     -3.232  0.0000E+00  0.6600E+02
     -3.002  0.0000E+00  0.6600E+02
     -2.772  0.0000E+00  0.6600E+02
     -2.542  0.0000E+00  0.6600E+02
     -2.312  0.0000E+00  0.6600E+02
     -2.082  0.0000E+00  0.6600E+02
     -1.852  0.0000E+00  0.6600E+02
     -1.623  0.0000E+00  0.6600E+02
     -1.393  0.0000E+00  0.6600E+02
     -1.163  0.0000E+00  0.6600E+02
     -0.933  0.0000E+00  0.6600E+02
     -0.703  0.0000E+00  0.6600E+02
     -0.473  0.1511E+02  0.6687E+02
     -0.243  0.1504E+02  0.6924E+02
     -0.013  0.1348E+02  0.7242E+02
      0.217  0.8453E+01  0.7455E+02
      0.447  0.6380E+01  0.7659E+02
      0.677  0.1645E+02  0.7937E+02
      0.907  0.1491E+02  0.8258E+02
      1.137  0.1328E+02  0.8594E+02
      1.367  0.2982E+02  0.9038E+02
      1.597  0.7108E+01  0.9452E+02
      1.827  0.7241E+01  0.9616E+02
      2.057  0.4408E+01  0.9753E+02
      2.287  0.1238E+02  0.9989E+02
      2.517  0.9374E+01  0.1018E+03
      2.747  0.1606E+02  0.1048E+03
      2.977  0.1571E+02  0.1091E+03
      3.207  0.1897E+02  0.1132E+03
      3.437  0.8936E+01  0.1164E+03
      3.667  0.7164E+01  0.1181E+03
      3.897  0.4098E+01  0.1198E+03
      4.127  0.0000E+00  0.1200E+03
      4.357  0.0000E+00  0.1200E+03
      4.587  0.0000E+00  0.1200E+03
      4.817  0.0000E+00  0.1200E+03
      5.047  0.0000E+00  0.1200E+03
      5.277  0.0000E+00  0.1200E+03
      5.507  0.0000E+00  0.1200E+03
      5.737  0.0000E+00  0.1200E+03
      5.967  0.0000E+00  0.1200E+03
      6.197  0.7199E-01  0.1200E+03
      6.427  0.2124E+01  0.1202E+03
      6.657  0.4568E+01  0.1210E+03
      6.887  0.3873E+01  0.1219E+03
      7.117  0.4107E+01  0.1229E+03
      7.346  0.5223E+01  0.1239E+03
      7.576  0.7255E+01  0.1254E+03
      7.806  0.9011E+01  0.1274E+03
      8.036  0.1372E+02  0.1299E+03
      8.266  0.1334E+02  0.1325E+03
      8.496  0.1058E+02  0.1353E+03
      8.726  0.6305E+01  0.1373E+03
      8.956  0.1133E+01  0.1380E+03
      9.186  0.4084E+01  0.1387E+03
      9.416  0.5264E+01  0.1399E+03
      9.646  0.2942E+01  0.1407E+03
      9.876  0.6642E+01  0.1419E+03
     10.106  0.1523E+01  0.1423E+03
     10.336  0.2854E+01  0.1429E+03
     10.566  0.3190E+01  0.1436E+03
     10.796  0.2557E+00  0.1440E+03
     11.026  0.0000E+00  0.1440E+03
     11.256  0.0000E+00  0.1440E+03
     11.486  0.0000E+00  0.1440E+03
     11.716  0.0000E+00  0.1440E+03
     11.946  0.0000E+00  0.1440E+03
     12.176  0.0000E+00  0.1440E+03
     12.406  0.0000E+00  0.1440E+03
     12.636  0.0000E+00  0.1440E+03
     12.866  0.0000E+00  0.1440E+03
     13.096  0.0000E+00  0.1440E+03
     13.326  0.0000E+00  0.1440E+03
     13.556  0.0000E+00  0.1440E+03
     13.786  0.0000E+00  0.1440E+03
     14.016  0.0000E+00  0.1440E+03
