  15  15   0   0
  0.1263860E+02  0.8901321E-09  0.8901321E-09  0.3988886E-09  0.5000000E-15
  1.000000000000000E-004
  CAR 
 unknown system                          
     14.29883615    -55.03333358  301      6.61272241      1.00000000
    -55.033  0.0000E+00  0.0000E+00
    -54.802  0.0000E+00  0.0000E+00
    -54.571  0.0000E+00  0.0000E+00
    -54.340  0.0000E+00  0.0000E+00
    -54.109  0.0000E+00  0.0000E+00
    -53.878  0.0000E+00  0.0000E+00
    -53.647  0.0000E+00  0.0000E+00
    -53.416  0.0000E+00  0.0000E+00
    -53.184  0.0000E+00  0.0000E+00
    -52.953  0.0000E+00  0.0000E+00
    -52.722  0.0000E+00  0.0000E+00
    -52.491  0.0000E+00  0.0000E+00
    -52.260  0.0000E+00  0.0000E+00
    -52.029  0.0000E+00  0.0000E+00
    -51.798  0.0000E+00  0.4000E+01
    -51.567  0.0000E+00  0.4000E+01
    -51.336  0.0000E+00  0.4000E+01
    -51.105  0.0000E+00  0.4000E+01
    -50.873  0.0000E+00  0.4000E+01
    -50.642  0.0000E+00  0.4000E+01
    -50.411  0.0000E+00  0.4000E+01
    -50.180  0.0000E+00  0.6000E+01
    -49.949  0.0000E+00  0.6000E+01
    -49.718  0.0000E+00  0.6000E+01
    -49.487  0.0000E+00  0.6000E+01
    -49.256  0.0000E+00  0.6000E+01
    -49.025  0.0000E+00  0.6000E+01
    -48.793  0.0000E+00  0.6000E+01
    -48.562  0.0000E+00  0.6000E+01
    -48.331  0.0000E+00  0.6000E+01
    -48.100  0.0000E+00  0.6000E+01
    -47.869  0.0000E+00  0.6000E+01
    -47.638  0.0000E+00  0.6000E+01
    -47.407  0.0000E+00  0.6000E+01
    -47.176  0.0000E+00  0.6000E+01
    -46.945  0.0000E+00  0.6000E+01
    -46.713  0.0000E+00  0.6000E+01
    -46.482  0.0000E+00  0.6000E+01
    -46.251  0.0000E+00  0.6000E+01
    -46.020  0.0000E+00  0.6000E+01
    -45.789  0.0000E+00  0.6000E+01
    -45.558  0.0000E+00  0.6000E+01
    -45.327  0.0000E+00  0.6000E+01
    -45.096  0.0000E+00  0.6000E+01
    -44.865  0.0000E+00  0.6000E+01
    -44.634  0.0000E+00  0.6000E+01
    -44.402  0.0000E+00  0.6000E+01
    -44.171  0.0000E+00  0.6000E+01
    -43.940  0.0000E+00  0.6000E+01
    -43.709  0.0000E+00  0.6000E+01
    -43.478  0.0000E+00  0.6000E+01
    -43.247  0.0000E+00  0.6000E+01
    -43.016  0.0000E+00  0.6000E+01
    -42.785  0.0000E+00  0.6000E+01
    -42.554  0.0000E+00  0.6000E+01
    -42.322  0.0000E+00  0.6000E+01
    -42.091  0.0000E+00  0.6000E+01
    -41.860  0.0000E+00  0.6000E+01
    -41.629  0.0000E+00  0.6000E+01
    -41.398  0.0000E+00  0.6000E+01
    -41.167  0.0000E+00  0.6000E+01
    -40.936  0.0000E+00  0.6000E+01
    -40.705  0.0000E+00  0.6000E+01
    -40.474  0.0000E+00  0.6000E+01
    -40.242  0.0000E+00  0.6000E+01
    -40.011  0.0000E+00  0.6000E+01
    -39.780  0.0000E+00  0.6000E+01
    -39.549  0.0000E+00  0.6000E+01
    -39.318  0.0000E+00  0.6000E+01
    -39.087  0.0000E+00  0.6000E+01
    -38.856  0.0000E+00  0.6000E+01
    -38.625  0.0000E+00  0.6000E+01
    -38.394  0.0000E+00  0.6000E+01
    -38.163  0.0000E+00  0.6000E+01
    -37.931  0.0000E+00  0.6000E+01
    -37.700  0.0000E+00  0.6000E+01
    -37.469  0.0000E+00  0.6000E+01
    -37.238  0.0000E+00  0.6000E+01
    -37.007  0.0000E+00  0.6000E+01
    -36.776  0.0000E+00  0.6000E+01
    -36.545  0.0000E+00  0.6000E+01
    -36.314  0.0000E+00  0.6000E+01
    -36.083  0.0000E+00  0.6000E+01
    -35.851  0.0000E+00  0.6000E+01
    -35.620  0.0000E+00  0.6000E+01
    -35.389  0.0000E+00  0.6000E+01
    -35.158  0.0000E+00  0.6000E+01
    -34.927  0.0000E+00  0.6000E+01
    -34.696  0.0000E+00  0.6000E+01
    -34.465  0.0000E+00  0.6000E+01
    -34.234  0.0000E+00  0.6000E+01
    -34.003  0.0000E+00  0.6000E+01
    -33.771  0.0000E+00  0.6000E+01
    -33.540  0.0000E+00  0.6000E+01
    -33.309  0.0000E+00  0.6000E+01
    -33.078  0.0000E+00  0.6000E+01
    -32.847  0.0000E+00  0.6000E+01
    -32.616  0.0000E+00  0.6000E+01
    -32.385  0.0000E+00  0.6000E+01
    -32.154  0.0000E+00  0.6000E+01
    -31.923  0.0000E+00  0.6000E+01
    -31.692  0.0000E+00  0.6000E+01
    -31.460  0.0000E+00  0.6000E+01
    -31.229  0.0000E+00  0.6000E+01
    -30.998  0.0000E+00  0.6000E+01
    -30.767  0.0000E+00  0.6000E+01
    -30.536  0.0000E+00  0.6000E+01
    -30.305  0.0000E+00  0.6000E+01
    -30.074  0.0000E+00  0.6000E+01
    -29.843  0.0000E+00  0.6000E+01
    -29.612  0.0000E+00  0.6000E+01
    -29.380  0.0000E+00  0.6000E+01
    -29.149  0.0000E+00  0.6000E+01
    -28.918  0.0000E+00  0.8000E+01
    -28.687  0.0000E+00  0.1200E+02
    -28.456  0.0000E+00  0.1200E+02
    -28.225  0.0000E+00  0.1200E+02
    -27.994  0.0000E+00  0.2400E+02
    -27.763  0.0000E+00  0.2400E+02
    -27.532  0.0000E+00  0.2400E+02
    -27.300  0.0000E+00  0.2400E+02
    -27.069  0.0000E+00  0.2400E+02
    -26.838  0.0000E+00  0.2400E+02
    -26.607  0.8113E+01  0.2484E+02
    -26.376  0.0000E+00  0.3000E+02
    -26.145  0.0000E+00  0.3000E+02
    -25.914  0.0000E+00  0.3000E+02
    -25.683  0.0000E+00  0.3000E+02
    -25.452  0.0000E+00  0.3000E+02
    -25.221  0.0000E+00  0.3000E+02
    -24.989  0.0000E+00  0.3000E+02
    -24.758  0.0000E+00  0.3000E+02
    -24.527  0.0000E+00  0.3000E+02
    -24.296  0.0000E+00  0.3000E+02
    -24.065  0.0000E+00  0.3000E+02
    -23.834  0.0000E+00  0.3000E+02
    -23.603  0.0000E+00  0.3000E+02
    -23.372  0.0000E+00  0.3000E+02
    -23.141  0.0000E+00  0.3000E+02
    -22.909  0.0000E+00  0.3000E+02
    -22.678  0.0000E+00  0.3000E+02
    -22.447  0.0000E+00  0.3000E+02
    -22.216  0.0000E+00  0.3000E+02
    -21.985  0.0000E+00  0.3000E+02
    -21.754  0.0000E+00  0.3000E+02
    -21.523  0.0000E+00  0.3000E+02
    -21.292  0.0000E+00  0.3000E+02
    -21.061  0.0000E+00  0.3000E+02
    -20.829  0.0000E+00  0.3000E+02
    -20.598  0.0000E+00  0.3000E+02
    -20.367  0.0000E+00  0.3000E+02
    -20.136  0.0000E+00  0.3000E+02
    -19.905  0.0000E+00  0.3000E+02
    -19.674  0.0000E+00  0.3000E+02
    -19.443  0.0000E+00  0.3000E+02
    -19.212  0.0000E+00  0.3000E+02
    -18.981  0.0000E+00  0.3000E+02
    -18.749  0.0000E+00  0.3000E+02
    -18.518  0.0000E+00  0.3000E+02
    -18.287  0.0000E+00  0.3000E+02
    -18.056  0.0000E+00  0.3000E+02
    -17.825  0.0000E+00  0.3000E+02
    -17.594  0.0000E+00  0.3000E+02
    -17.363  0.0000E+00  0.3000E+02
    -17.132  0.0000E+00  0.3000E+02
    -16.901  0.0000E+00  0.3000E+02
    -16.670  0.0000E+00  0.3000E+02
    -16.438  0.0000E+00  0.3000E+02
    -16.207  0.0000E+00  0.3000E+02
    -15.976  0.0000E+00  0.3000E+02
    -15.745  0.0000E+00  0.3000E+02
    -15.514  0.0000E+00  0.3000E+02
    -15.283  0.0000E+00  0.3000E+02
    -15.052  0.0000E+00  0.3000E+02
    -14.821  0.0000E+00  0.3000E+02
    -14.590  0.0000E+00  0.3000E+02
    -14.358  0.0000E+00  0.3000E+02
    -14.127  0.0000E+00  0.3000E+02
    -13.896  0.0000E+00  0.3000E+02
    -13.665  0.1438E+01  0.3004E+02
    -13.434  0.2050E+01  0.3063E+02
    -13.203  0.6255E+01  0.3169E+02
    -12.972  0.9245E+01  0.3350E+02
    -12.741  0.7924E+01  0.3517E+02
    -12.510  0.1260E+02  0.3746E+02
    -12.278  0.1123E+02  0.3998E+02
    -12.047  0.2793E+02  0.4478E+02
    -11.816  0.0000E+00  0.4800E+02
    -11.585  0.0000E+00  0.4800E+02
    -11.354  0.0000E+00  0.4800E+02
    -11.123  0.2520E+01  0.4809E+02
    -10.892  0.3579E+02  0.5282E+02
    -10.661  0.2753E+02  0.5991E+02
    -10.430  0.4700E+02  0.6534E+02
    -10.199  0.0000E+00  0.6600E+02
     -9.967  0.0000E+00  0.6600E+02
     -9.736  0.0000E+00  0.6600E+02
     -9.505  0.0000E+00  0.6600E+02
     -9.274  0.0000E+00  0.6600E+02
     -9.043  0.0000E+00  0.6600E+02
     -8.812  0.0000E+00  0.6600E+02
     -8.581  0.0000E+00  0.6600E+02
     -8.350  0.0000E+00  0.6600E+02
     -8.119  0.0000E+00  0.6600E+02
     -7.887  0.0000E+00  0.6600E+02
     -7.656  0.0000E+00  0.6600E+02
     -7.425  0.0000E+00  0.6600E+02
     -7.194  0.0000E+00  0.6600E+02
     -6.963  0.0000E+00  0.6600E+02
     -6.732  0.0000E+00  0.6600E+02
     -6.501  0.0000E+00  0.6600E+02
     -6.270  0.0000E+00  0.6600E+02
     -6.039  0.0000E+00  0.6600E+02
     -5.807  0.0000E+00  0.6600E+02
     -5.576  0.0000E+00  0.6600E+02
     -5.345  0.0000E+00  0.6600E+02
     -5.114  0.0000E+00  0.6600E+02
     -4.883  0.0000E+00  0.6600E+02
     -4.652  0.0000E+00  0.6600E+02
     -4.421  0.0000E+00  0.6600E+02
     -4.190  0.0000E+00  0.6600E+02
     -3.959  0.0000E+00  0.6600E+02
     -3.728  0.0000E+00  0.6600E+02
     -3.496  0.0000E+00  0.6600E+02
     -3.265  0.0000E+00  0.6600E+02
     -3.034  0.0000E+00  0.6600E+02
     -2.803  0.0000E+00  0.6600E+02
     -2.572  0.0000E+00  0.6600E+02
     -2.341  0.0000E+00  0.6600E+02
     -2.110  0.0000E+00  0.6600E+02
     -1.879  0.0000E+00  0.6600E+02
     -1.648  0.0000E+00  0.6600E+02
     -1.416  0.0000E+00  0.6600E+02
     -1.185  0.7267E+00  0.6632E+02
     -0.954  0.7266E+00  0.6649E+02
     -0.723  0.7855E+00  0.6666E+02
     -0.492  0.6078E+01  0.6735E+02
     -0.261  0.1053E+02  0.7002E+02
     -0.030  0.1251E+02  0.7267E+02
      0.201  0.5987E+01  0.7411E+02
      0.432  0.1097E+02  0.7645E+02
      0.664  0.1401E+02  0.7891E+02
      0.895  0.1453E+02  0.8221E+02
      1.126  0.1627E+02  0.8593E+02
      1.357  0.2007E+02  0.9033E+02
      1.588  0.9086E+01  0.9423E+02
      1.819  0.8184E+01  0.9613E+02
      2.050  0.8048E+01  0.9807E+02
      2.281  0.1220E+02  0.9997E+02
      2.512  0.1142E+02  0.1022E+03
      2.743  0.1397E+02  0.1052E+03
      2.975  0.1613E+02  0.1089E+03
      3.206  0.1584E+02  0.1126E+03
      3.437  0.1301E+02  0.1163E+03
      3.668  0.5730E+01  0.1180E+03
      3.899  0.3820E+01  0.1196E+03
      4.130  0.0000E+00  0.1200E+03
      4.361  0.0000E+00  0.1200E+03
      4.592  0.0000E+00  0.1200E+03
      4.823  0.0000E+00  0.1200E+03
      5.055  0.0000E+00  0.1200E+03
      5.286  0.0000E+00  0.1200E+03
      5.517  0.0000E+00  0.1200E+03
      5.748  0.0000E+00  0.1200E+03
      5.979  0.0000E+00  0.1200E+03
      6.210  0.3289E+00  0.1200E+03
      6.441  0.3014E+01  0.1204E+03
      6.672  0.3761E+01  0.1212E+03
      6.903  0.3615E+01  0.1220E+03
      7.135  0.5243E+01  0.1230E+03
      7.366  0.5489E+01  0.1243E+03
      7.597  0.6745E+01  0.1258E+03
      7.828  0.1053E+02  0.1278E+03
      8.059  0.1629E+02  0.1305E+03
      8.290  0.1079E+02  0.1337E+03
      8.521  0.7547E+01  0.1358E+03
      8.752  0.4940E+01  0.1371E+03
      8.983  0.2818E+01  0.1383E+03
      9.214  0.4020E+01  0.1391E+03
      9.446  0.4731E+01  0.1400E+03
      9.677  0.3069E+01  0.1409E+03
      9.908  0.2419E+01  0.1415E+03
     10.139  0.2509E+01  0.1421E+03
     10.370  0.1741E+01  0.1426E+03
     10.601  0.1400E+01  0.1430E+03
     10.832  0.1770E+01  0.1433E+03
     11.063  0.1410E+01  0.1440E+03
     11.294  0.0000E+00  0.1440E+03
     11.526  0.0000E+00  0.1440E+03
     11.757  0.0000E+00  0.1440E+03
     11.988  0.0000E+00  0.1440E+03
     12.219  0.0000E+00  0.1440E+03
     12.450  0.0000E+00  0.1440E+03
     12.681  0.0000E+00  0.1440E+03
     12.912  0.0000E+00  0.1440E+03
     13.143  0.0000E+00  0.1440E+03
     13.374  0.0000E+00  0.1440E+03
     13.606  0.0000E+00  0.1440E+03
     13.837  0.0000E+00  0.1440E+03
     14.068  0.0000E+00  0.1440E+03
     14.299  0.0000E+00  0.1440E+03
