 running on  100 total cores
 distrk:  each k-point on  100 cores,    1 groups
 distr:  one band on   25 cores,    4 groups
 using from now: INCAR     
 vasp.5.4.4.18Apr17-6-g9f103f2a35 (build May 23 2017 16:08:52) complex          
  
 POSCAR found :  4 types and      75 ions
 scaLAPACK will be used

 ----------------------------------------------------------------------------- 
|                                                                             |
|           W    W    AA    RRRRR   N    N  II  N    N   GGGG   !!!           |
|           W    W   A  A   R    R  NN   N  II  NN   N  G    G  !!!           |
|           W    W  A    A  R    R  N N  N  II  N N  N  G       !!!           |
|           W WW W  AAAAAA  RRRRR   N  N N  II  N  N N  G  GGG   !            |
|           WW  WW  A    A  R   R   N   NN  II  N   NN  G    G                |
|           W    W  A    A  R    R  N    N  II  N    N   GGGG   !!!           |
|                                                                             |
|      For optimal performance we recommend to set                            |
|        NCORE= 4 - approx SQRT( number of cores)                             |
|      NCORE specifies how many cores store one orbital (NPAR=cpu/NCORE).     |
|      This setting can  greatly improve the performance of VASP for DFT.     |
|      The default,   NCORE=1            might be grossly inefficient         |
|      on modern multi-core architectures or massively parallel machines.     |
|      Do your own testing !!!!                                               |
|      Unfortunately you need to use the default for GW and RPA calculations. |
|      (for HF NCORE is supported but not extensively tested yet)             |
|                                                                             |
 ----------------------------------------------------------------------------- 


 ----------------------------------------------------------------------------- 
|                                                                             |
|  ADVICE TO THIS USER RUNNING 'VASP/VAMP'   (HEAR YOUR MASTER'S VOICE ...):  |
|                                                                             |
|      You have a (more or less) 'large supercell' and for larger cells       |
|      it might be more efficient to use real space projection opertators     |
|      So try LREAL= Auto  in the INCAR   file.                               |
|      Mind:          For very  accurate calculation you might also keep the  |
|      reciprocal projection scheme          (i.e. LREAL=.FALSE.)             |
|                                                                             |
 ----------------------------------------------------------------------------- 

 LDA part: xc-table for Pade appr. of Perdew
 POSCAR, INCAR and KPOINTS ok, starting setup
 FFT: planning ...
 WAVECAR not read
 entering main loop
       N       E                     dE             d eps       ncg     rms          rms(c)
DAV:   1     0.663752280007E+04    0.66375E+04   -0.32666E+05 11776   0.168E+03
DAV:   2     0.106818443019E+03   -0.65307E+04   -0.62770E+04 14144   0.570E+02
DAV:   3    -0.660834906112E+03   -0.76765E+03   -0.75857E+03 16912   0.180E+02
DAV:   4    -0.711579253755E+03   -0.50744E+02   -0.50184E+02 19056   0.443E+01
DAV:   5    -0.715013447428E+03   -0.34342E+01   -0.33961E+01 21288   0.102E+01    0.852E+01
DAV:   6    -0.610368187317E+03    0.10465E+03   -0.60600E+02 16360   0.486E+01    0.580E+01
DAV:   7    -0.620445876365E+03   -0.10078E+02   -0.22418E+02 17152   0.325E+01    0.394E+01
DAV:   8    -0.617326634699E+03    0.31192E+01   -0.52450E+01 17440   0.213E+01    0.253E+01
DAV:   9    -0.622141800860E+03   -0.48152E+01   -0.74508E+01 16936   0.240E+01    0.171E+01
DAV:  10    -0.619394107607E+03    0.27477E+01   -0.27808E+01 18184   0.119E+01    0.280E+01
DAV:  11    -0.611578430665E+03    0.78157E+01   -0.39931E+01 16944   0.118E+01    0.716E+00
DAV:  12    -0.610149269946E+03    0.14292E+01   -0.27954E+00 18536   0.456E+00    0.487E+00
DAV:  13    -0.609580192913E+03    0.56908E+00   -0.23369E+00 17696   0.357E+00    0.224E+00
DAV:  14    -0.609637303037E+03   -0.57110E-01   -0.11458E+00 16864   0.222E+00    0.222E+00
DAV:  15    -0.609601665301E+03    0.35638E-01   -0.69331E-01 17200   0.187E+00    0.156E+00
DAV:  16    -0.609572397479E+03    0.29268E-01   -0.16997E-01 15440   0.884E-01    0.717E-01
DAV:  17    -0.609561047011E+03    0.11350E-01   -0.40037E-02 18696   0.470E-01    0.533E-01
DAV:  18    -0.609573872391E+03   -0.12825E-01   -0.20287E-02 17872   0.415E-01    0.284E-01
DAV:  19    -0.609565747130E+03    0.81253E-02   -0.81559E-03 16712   0.234E-01    0.146E-01
DAV:  20    -0.609566860577E+03   -0.11134E-02   -0.98189E-04 18584   0.783E-02    0.123E-01
DAV:  21    -0.609566926160E+03   -0.65583E-04   -0.39995E-04 17336   0.509E-02    0.109E-01
DAV:  22    -0.609567527268E+03   -0.60111E-03   -0.16449E-04 15184   0.294E-02    0.765E-02
DAV:  23    -0.609568201371E+03   -0.67410E-03   -0.71772E-05 11264   0.224E-02    0.494E-02
DAV:  24    -0.609568706684E+03   -0.50531E-03   -0.48464E-05 10664   0.169E-02    0.303E-02
DAV:  25    -0.609569194557E+03   -0.48787E-03   -0.28790E-05  9624   0.131E-02    0.124E-02
DAV:  26    -0.609569283705E+03   -0.89148E-04   -0.10456E-05  7312   0.846E-03    0.889E-03
DAV:  27    -0.609569418334E+03   -0.13463E-03   -0.42527E-06  6992   0.587E-03    0.486E-03
DAV:  28    -0.609569454255E+03   -0.35921E-04   -0.30406E-06  6968   0.415E-03    0.475E-03
DAV:  29    -0.609569503086E+03   -0.48830E-04   -0.30485E-06  6904   0.395E-03    0.344E-03
DAV:  30    -0.609569430227E+03    0.72859E-04   -0.12074E-06  6880   0.323E-03    0.215E-03
DAV:  31    -0.609569438295E+03   -0.80683E-05   -0.57709E-07  6832   0.194E-03
   1 F= -.60956944E+03 E0= -.60956944E+03  d E =-.609569E+03
 curvature:   0.00 expect dE= 0.000E+00 dE for cont linesearch  0.000E+00
 trial: gam= 0.00000 g(F)=  0.365E+00 g(S)=  0.171E+02 ort = 0.000E+00 (trialstep = 0.100E+01)
 search vector abs. value=  0.175E+02
 bond charge predicted
       N       E                     dE             d eps       ncg     rms          rms(c)
DAV:   1    -0.724591219429E+03   -0.11502E+03   -0.37301E+03 14952   0.152E+02    0.106E+02
DAV:   2    -0.691442121990E+03    0.33149E+02   -0.12776E+03 16968   0.727E+01    0.660E+01
DAV:   3    -0.710684128715E+03   -0.19242E+02   -0.33634E+02 19064   0.620E+01    0.590E+01
DAV:   4    -0.642597253714E+03    0.68087E+02   -0.28967E+02 18352   0.328E+01    0.402E+01
DAV:   5    -0.616668403721E+03    0.25929E+02   -0.99220E+01 17984   0.180E+01    0.283E+01
DAV:   6    -0.614493237967E+03    0.21752E+01   -0.46799E+01 16872   0.138E+01    0.241E+01
DAV:   7    -0.609635794037E+03    0.48574E+01   -0.21634E+01 17064   0.101E+01    0.176E+01
DAV:   8    -0.610967452185E+03   -0.13317E+01   -0.15910E+01 16896   0.796E+00    0.157E+01
DAV:   9    -0.609725351728E+03    0.12421E+01   -0.87722E+00 17336   0.608E+00    0.121E+01
DAV:  10    -0.609552005883E+03    0.17335E+00   -0.82502E+00 17408   0.472E+00    0.869E+00
DAV:  11    -0.608655179694E+03    0.89683E+00   -0.39014E+00 17312   0.364E+00    0.561E+00
DAV:  12    -0.608319311918E+03    0.33587E+00   -0.21558E+00 17048   0.301E+00    0.351E+00
DAV:  13    -0.608170817310E+03    0.14849E+00   -0.75264E-01 14976   0.160E+00    0.229E+00
DAV:  14    -0.608105536733E+03    0.65281E-01   -0.38467E-01 16936   0.124E+00    0.131E+00
DAV:  15    -0.608113397078E+03   -0.78603E-02   -0.13762E-01 15984   0.720E-01    0.111E+00
DAV:  16    -0.608111011608E+03    0.23855E-02   -0.15133E-01 18352   0.755E-01    0.735E-01
DAV:  17    -0.608098523242E+03    0.12488E-01   -0.83098E-02 17368   0.484E-01    0.368E-01
DAV:  18    -0.608101423795E+03   -0.29006E-02   -0.16366E-02 16832   0.257E-01    0.264E-01
DAV:  19    -0.608097901656E+03    0.35221E-02   -0.71669E-03 17104   0.191E-01    0.181E-01
DAV:  20    -0.608102327815E+03   -0.44262E-02   -0.26620E-03 17280   0.112E-01    0.133E-01
DAV:  21    -0.608099619960E+03    0.27079E-02   -0.13439E-03 16288   0.791E-02    0.749E-02
DAV:  22    -0.608099474070E+03    0.14589E-03   -0.35594E-04 17112   0.399E-02    0.408E-02
DAV:  23    -0.608099761878E+03   -0.28781E-03   -0.18065E-04 13464   0.249E-02    0.126E-02
DAV:  24    -0.608099669907E+03    0.91972E-04   -0.27140E-05  8928   0.117E-02    0.108E-02
DAV:  25    -0.608099800338E+03   -0.13043E-03   -0.94997E-06  7264   0.740E-03    0.423E-03
DAV:  26    -0.608099786288E+03    0.14050E-04   -0.24265E-06  7104   0.435E-03    0.240E-03
DAV:  27    -0.608099793752E+03   -0.74641E-05   -0.11190E-06  7088   0.295E-03
   2 F= -.60809979E+03 E0= -.60809979E+03  d E =0.146964E+01
 trial-energy change:    1.469645  1 .order    0.483438  -17.456904   18.423780
 step:   0.4458(harm=  0.4865)  dis= 0.01323  next Energy=  -613.373066 (dE=-0.380E+01)
 bond charge predicted
       N       E                     dE             d eps       ncg     rms          rms(c)
DAV:   1    -0.651118559626E+03   -0.43019E+02   -0.11800E+03 14616   0.843E+01    0.517E+01
DAV:   2    -0.619643637919E+03    0.31475E+02   -0.11640E+02 13848   0.240E+01    0.199E+01
DAV:   3    -0.622720985004E+03   -0.30773E+01   -0.99821E+01 16784   0.240E+01    0.156E+01
DAV:   4    -0.619873218898E+03    0.28478E+01   -0.30838E+01 18024   0.131E+01    0.147E+01
DAV:   5    -0.614834612367E+03    0.50386E+01   -0.11329E+01 16712   0.786E+00    0.902E+00
DAV:   6    -0.613318479322E+03    0.15161E+01   -0.69312E+00 17880   0.622E+00    0.577E+00
DAV:   7    -0.613522406503E+03   -0.20393E+00   -0.32659E+00 19616   0.366E+00    0.916E+00
DAV:   8    -0.613094766257E+03    0.42764E+00   -0.56824E+00 17080   0.346E+00    0.329E+00
DAV:   9    -0.613118936572E+03   -0.24170E-01   -0.32875E-01 18264   0.128E+00    0.198E+00
DAV:  10    -0.613271033371E+03   -0.15210E+00   -0.43122E-01 17912   0.137E+00    0.211E+00
DAV:  11    -0.613239508973E+03    0.31524E-01   -0.20064E-01 18792   0.843E-01    0.147E+00
DAV:  12    -0.613244866958E+03   -0.53580E-02   -0.10386E-01 19048   0.748E-01    0.572E-01
DAV:  13    -0.613244173306E+03    0.69365E-03   -0.21186E-02 17592   0.299E-01    0.433E-01
DAV:  14    -0.613240040447E+03    0.41329E-02   -0.51749E-03 17640   0.194E-01    0.232E-01
DAV:  15    -0.613239143630E+03    0.89682E-03   -0.11840E-03 16848   0.883E-02    0.174E-01
DAV:  16    -0.613239489113E+03   -0.34548E-03   -0.62788E-04 17960   0.620E-02    0.199E-01
DAV:  17    -0.613237158686E+03    0.23304E-02   -0.36416E-04 17176   0.514E-02    0.105E-01
DAV:  18    -0.613235988330E+03    0.11704E-02   -0.82529E-05 13920   0.230E-02    0.578E-02
DAV:  19    -0.613235525569E+03    0.46276E-03   -0.27747E-05 10744   0.167E-02    0.385E-02
DAV:  20    -0.613234682309E+03    0.84326E-03   -0.26961E-04 11104   0.200E-02    0.833E-02
DAV:  21    -0.613234652094E+03    0.30215E-04   -0.16262E-05  8664   0.808E-03    0.819E-02
DAV:  22    -0.613234651047E+03    0.10472E-05   -0.32429E-06  7040   0.517E-03
   3 F= -.61323465E+03 E0= -.61323465E+03  d E =-.366521E+01
 curvature:  -0.24 expect dE=-0.268E-01 dE for cont linesearch -0.241E-02
 ZBRENT: interpolating
 opt :   0.4354  next Energy=  -613.236818 (dE=-0.367E+01)
 bond charge predicted
       N       E                     dE             d eps       ncg     rms          rms(c)
DAV:   1    -0.613247386316E+03   -0.12734E-01   -0.41734E-01 14824   0.162E+00    0.913E-01
DAV:   2    -0.613247928193E+03   -0.54188E-03   -0.52835E-02 14584   0.505E-01    0.477E-01
DAV:   3    -0.613232059166E+03    0.15869E-01   -0.38938E-02 15744   0.467E-01    0.706E-01
DAV:   4    -0.613236000256E+03   -0.39411E-02   -0.22376E-02 15184   0.352E-01    0.193E-01
DAV:   5    -0.613239049301E+03   -0.30490E-02   -0.14848E-02 16368   0.214E-01    0.204E-01
DAV:   6    -0.613236378273E+03    0.26710E-02   -0.49276E-03 16960   0.132E-01    0.102E-01
DAV:   7    -0.613236658459E+03   -0.28019E-03   -0.52925E-04 18176   0.496E-02    0.878E-02
DAV:   8    -0.613236484729E+03    0.17373E-03   -0.16010E-04 15176   0.217E-02    0.934E-02
DAV:   9    -0.613236947919E+03   -0.46319E-03   -0.75275E-04 11664   0.200E-02    0.561E-02
DAV:  10    -0.613236737741E+03    0.21018E-03   -0.21383E-04 16688   0.320E-02    0.402E-02
DAV:  11    -0.613236729791E+03    0.79497E-05   -0.13714E-04 13880   0.242E-02    0.252E-02
DAV:  12    -0.613236666029E+03    0.63761E-04   -0.26409E-05  7144   0.124E-02    0.241E-02
DAV:  13    -0.613236705949E+03   -0.39919E-04   -0.84710E-06  6760   0.866E-03    0.206E-02
DAV:  14    -0.613236680910E+03    0.25039E-04   -0.25210E-06  6680   0.452E-03    0.188E-02
DAV:  15    -0.613236656934E+03    0.23976E-04   -0.12977E-06  6624   0.368E-03    0.169E-02
DAV:  16    -0.613236648073E+03    0.88607E-05   -0.86145E-07  6608   0.248E-03
   4 F= -.61323665E+03 E0= -.61323665E+03  d E =-.366721E+01
 curvature:  -0.22 expect dE=-0.217E-01 dE for cont linesearch -0.985E-05
 ZBRENT: interpolating
 opt :   0.4346  next Energy=  -613.236659 (dE=-0.367E+01)
 bond charge predicted
       N       E                     dE             d eps       ncg     rms          rms(c)
DAV:   1    -0.613236518076E+03    0.13886E-03   -0.23521E-03 14856   0.117E-01    0.986E-02
DAV:   2    -0.613238949731E+03   -0.24317E-02   -0.52076E-03 16752   0.922E-02    0.145E-01
DAV:   3    -0.613237130935E+03    0.18188E-02   -0.22107E-03 16216   0.978E-02    0.665E-02
DAV:   4    -0.613236041622E+03    0.10893E-02   -0.11046E-03 14840   0.586E-02    0.554E-02
DAV:   5    -0.613236828202E+03   -0.78658E-03   -0.27461E-04 12040   0.328E-02    0.278E-02
DAV:   6    -0.613236413403E+03    0.41480E-03   -0.39716E-05 11080   0.179E-02    0.245E-02
DAV:   7    -0.613236534640E+03   -0.12124E-03   -0.23675E-04  7656   0.140E-02    0.738E-02
DAV:   8    -0.613236668358E+03   -0.13372E-03   -0.31245E-04  7112   0.955E-03    0.226E-02
DAV:   9    -0.613236731820E+03   -0.63462E-04   -0.60000E-06  6896   0.616E-03    0.243E-02
DAV:  10    -0.613236701176E+03    0.30644E-04   -0.37592E-06  6504   0.553E-03    0.235E-02
DAV:  11    -0.613236679323E+03    0.21853E-04   -0.20737E-06  6416   0.470E-03    0.196E-02
DAV:  12    -0.613236629694E+03    0.49629E-04   -0.26043E-06  6416   0.436E-03    0.159E-02
DAV:  13    -0.613236610847E+03    0.18847E-04   -0.33163E-05  6416   0.360E-03    0.688E-02
DAV:  14    -0.613236631319E+03   -0.20472E-04   -0.13872E-04  6416   0.316E-03    0.165E-02
DAV:  15    -0.613236653222E+03   -0.21902E-04   -0.59069E-07  6416   0.271E-03    0.175E-02
DAV:  16    -0.613236650359E+03    0.28630E-05   -0.43980E-07  6392   0.167E-03
   5 F= -.61323665E+03 E0= -.61323665E+03  d E =-.366721E+01
 curvature:  -0.23 expect dE=-0.232E-01 dE for cont linesearch -0.131E-09
 trial: gam= 0.00570 g(F)=  0.962E-01 g(S)=  0.318E-02 ort =-0.990E-04 (trialstep = 0.887E+00)
 search vector abs. value=  0.999E-01
 bond charge predicted
       N       E                     dE             d eps       ncg     rms          rms(c)
DAV:   1    -0.613300267907E+03   -0.63615E-01   -0.97806E+00 12072   0.523E+00    0.115E+00
DAV:   2    -0.613310177710E+03   -0.99098E-02   -0.40565E-01 15392   0.139E+00    0.105E+00
DAV:   3    -0.613331428863E+03   -0.21251E-01   -0.78386E-02 16576   0.637E-01    0.738E-01
DAV:   4    -0.613312101762E+03    0.19327E-01   -0.37478E-02 16136   0.435E-01    0.449E-01
DAV:   5    -0.613320837605E+03   -0.87358E-02   -0.83275E-02 16616   0.495E-01    0.597E-01
DAV:   6    -0.613313475913E+03    0.73617E-02   -0.46855E-02 16800   0.378E-01    0.153E-01
DAV:   7    -0.613315769403E+03   -0.22935E-02   -0.34389E-03 17320   0.130E-01    0.984E-02
DAV:   8    -0.613314302319E+03    0.14671E-02   -0.12481E-03 17952   0.675E-02    0.507E-02
DAV:   9    -0.613314661100E+03   -0.35878E-03   -0.22844E-04 16424   0.357E-02    0.326E-02
DAV:  10    -0.613314619415E+03    0.41684E-04   -0.55470E-05 11984   0.203E-02    0.140E-02
DAV:  11    -0.613314612559E+03    0.68566E-05   -0.15115E-05  7240   0.109E-02
   6 F= -.61331461E+03 E0= -.61331461E+03  d E =-.779622E-01
 trial-energy change:   -0.077962  1 .order   -0.069455   -0.088108   -0.050802
 step:   1.2907(harm=  2.0947)  dis= 0.02163  next Energy=  -613.326980 (dE=-0.903E-01)
 bond charge predicted
       N       E                     dE             d eps       ncg     rms          rms(c)
DAV:   1    -0.613336700233E+03   -0.22081E-01   -0.20210E+00 12080   0.238E+00    0.523E-01
DAV:   2    -0.613333752743E+03    0.29475E-02   -0.84391E-02 15400   0.634E-01    0.482E-01
DAV:   3    -0.613343878829E+03   -0.10126E-01   -0.15122E-02 16616   0.292E-01    0.334E-01
DAV:   4    -0.613336572963E+03    0.73059E-02   -0.70791E-03 16528   0.190E-01    0.198E-01
DAV:   5    -0.613340430689E+03   -0.38577E-02   -0.16817E-02 16776   0.226E-01    0.278E-01
DAV:   6    -0.613337734679E+03    0.26960E-02   -0.90503E-03 16512   0.186E-01    0.659E-02
DAV:   7    -0.613339218443E+03   -0.14838E-02   -0.84032E-04 17648   0.605E-02    0.470E-02
DAV:   8    -0.613338350931E+03    0.86751E-03   -0.21495E-04 15832   0.318E-02    0.209E-02
DAV:   9    -0.613338355664E+03   -0.47329E-05   -0.31523E-05  8728   0.139E-02
   7 F= -.61333836E+03 E0= -.61333836E+03  d E =-.101705E+00
 curvature:  -0.59 expect dE=-0.339E-01 dE for cont linesearch -0.848E-02
 ZBRENT: increasing intervall
 opt :   2.0983  next Energy=  -613.353478 (dE=-0.117E+00)
 bond charge predicted
       N       E                     dE             d eps       ncg     rms          rms(c)
DAV:   1    -0.613350579690E+03   -0.12229E-01   -0.80834E+00 12096   0.477E+00    0.107E+00
DAV:   2    -0.613357864364E+03   -0.72847E-02   -0.38157E-01 15616   0.132E+00    0.116E+00
DAV:   3    -0.613375549608E+03   -0.17685E-01   -0.11902E-01 16296   0.728E-01    0.763E-01
DAV:   4    -0.613367385546E+03    0.81641E-02   -0.12836E-01 16448   0.643E-01    0.701E-01
DAV:   5    -0.613358792576E+03    0.85930E-02   -0.76653E-02 16816   0.479E-01    0.364E-01
DAV:   6    -0.613362450144E+03   -0.36576E-02   -0.63692E-03 17464   0.192E-01    0.128E-01
DAV:   7    -0.613361431520E+03    0.10186E-02   -0.24013E-03 17832   0.117E-01    0.939E-02
DAV:   8    -0.613361685562E+03   -0.25404E-03   -0.11078E-03 16032   0.634E-02    0.454E-02
DAV:   9    -0.613361127640E+03    0.55792E-03   -0.29063E-04 15552   0.318E-02    0.341E-02
DAV:  10    -0.613361621981E+03   -0.49434E-03   -0.99667E-05 13192   0.228E-02    0.155E-02
DAV:  11    -0.613361476780E+03    0.14520E-03   -0.18134E-05  7200   0.111E-02    0.782E-03
DAV:  12    -0.613361501382E+03   -0.24602E-04   -0.52245E-06  7016   0.828E-03    0.449E-03
DAV:  13    -0.613361488920E+03    0.12462E-04   -0.21891E-06  6896   0.446E-03    0.267E-03
DAV:  14    -0.613361485275E+03    0.36453E-05   -0.15123E-06  6824   0.374E-03
   8 F= -.61336149E+03 E0= -.61336149E+03  d E =-.124835E+00
 curvature:  -1.05 expect dE=-0.119E+00 dE for cont linesearch -0.131E-06
 trial: gam= 1.15132 g(F)=  0.111E+00 g(S)=  0.340E-02 ort =-0.112E-03 (trialstep = 0.458E+00)
 search vector abs. value=  0.246E+00
 bond charge predicted
       N       E                     dE             d eps       ncg     rms          rms(c)
DAV:   1    -0.613393943675E+03   -0.32455E-01   -0.70215E+00 12280   0.460E+00    0.859E-01
DAV:   2    -0.613397493029E+03   -0.35494E-02   -0.26162E-01 15008   0.114E+00    0.871E-01
DAV:   3    -0.613416190260E+03   -0.18697E-01   -0.89886E-02 16488   0.660E-01    0.642E-01
DAV:   4    -0.613408942497E+03    0.72478E-02   -0.83650E-02 16592   0.539E-01    0.554E-01
DAV:   5    -0.613401098223E+03    0.78443E-02   -0.45981E-02 16904   0.361E-01    0.317E-01
DAV:   6    -0.613405715366E+03   -0.46171E-02   -0.72887E-03 18408   0.198E-01    0.199E-01
DAV:   7    -0.613404961840E+03    0.75353E-03   -0.33536E-03 16960   0.130E-01    0.652E-02
DAV:   8    -0.613404363815E+03    0.59802E-03   -0.64468E-04 17520   0.497E-02    0.455E-02
DAV:   9    -0.613404278205E+03    0.85610E-04   -0.24685E-04 14672   0.293E-02    0.285E-02
DAV:  10    -0.613404074377E+03    0.20383E-03   -0.69441E-05  8152   0.155E-02    0.171E-02
DAV:  11    -0.613404063556E+03    0.10821E-04   -0.28553E-05  7176   0.106E-02    0.134E-02
DAV:  12    -0.613404023112E+03    0.40444E-04   -0.23006E-05  7016   0.975E-03    0.101E-02
DAV:  13    -0.613404012995E+03    0.10118E-04   -0.76784E-06  6864   0.615E-03    0.881E-03
DAV:  14    -0.613404009246E+03    0.37488E-05   -0.52211E-06  6824   0.400E-03
   9 F= -.61340401E+03 E0= -.61340401E+03  d E =-.425240E-01
 trial-energy change:   -0.042524  1 .order   -0.043759   -0.052162   -0.035356
 step:   1.4229(harm=  1.4229)  dis= 0.03618  next Energy=  -613.442435 (dE=-0.809E-01)
 bond charge predicted
       N       E                     dE             d eps       ncg     rms          rms(c)
DAV:   1    -0.613373725359E+03    0.30288E-01   -0.31071E+01 12240   0.968E+00    0.184E+00
DAV:   2    -0.613441139277E+03   -0.67414E-01   -0.11672E+00 15024   0.243E+00    0.190E+00
DAV:   3    -0.613464182330E+03   -0.23043E-01   -0.30695E-01 16488   0.125E+00    0.126E+00
DAV:   4    -0.613458710282E+03    0.54720E-02   -0.32393E-01 16592   0.109E+00    0.116E+00
DAV:   5    -0.613434476212E+03    0.24234E-01   -0.20608E-01 16664   0.790E-01    0.674E-01
DAV:   6    -0.613441640928E+03   -0.71647E-02   -0.30723E-02 18320   0.413E-01    0.331E-01
DAV:   7    -0.613437850369E+03    0.37906E-02   -0.75091E-03 16912   0.238E-01    0.115E-01
DAV:   8    -0.613437409324E+03    0.44105E-03   -0.15958E-03 18464   0.873E-02    0.688E-02
DAV:   9    -0.613437359134E+03    0.50190E-04   -0.58839E-04 16176   0.506E-02    0.532E-02
DAV:  10    -0.613437309385E+03    0.49749E-04   -0.24059E-04 14232   0.323E-02    0.315E-02
DAV:  11    -0.613437088428E+03    0.22096E-03   -0.84846E-05 12712   0.213E-02    0.171E-02
DAV:  12    -0.613437059900E+03    0.28528E-04   -0.28200E-05  8368   0.140E-02    0.794E-03
DAV:  13    -0.613437037553E+03    0.22347E-04   -0.45026E-06  6992   0.714E-03    0.484E-03
DAV:  14    -0.613437040069E+03   -0.25154E-05   -0.23906E-06  6920   0.426E-03
  10 F= -.61343704E+03 E0= -.61343704E+03  d E =-.755548E-01
 curvature:  -1.54 expect dE=-0.318E-01 dE for cont linesearch -0.234E-04
 trial: gam= 0.17144 g(F)=  0.181E-01 g(S)=  0.258E-02 ort =-0.193E-02 (trialstep = 0.651E+00)
 search vector abs. value=  0.272E-01
 bond charge predicted
       N       E                     dE             d eps       ncg     rms          rms(c)
DAV:   1    -0.613444448315E+03   -0.74108E-02   -0.20283E+00 12248   0.306E+00    0.462E-01
DAV:   2    -0.613444850534E+03   -0.40222E-03   -0.10367E-01 14664   0.749E-01    0.416E-01
DAV:   3    -0.613452502023E+03   -0.76515E-02   -0.17773E-02 16672   0.305E-01    0.312E-01
DAV:   4    -0.613446366396E+03    0.61356E-02   -0.10394E-02 16256   0.222E-01    0.221E-01
DAV:   5    -0.613447604596E+03   -0.12382E-02   -0.13836E-02 15968   0.213E-01    0.194E-01
DAV:   6    -0.613447375783E+03    0.22881E-03   -0.41917E-03 15392   0.129E-01    0.633E-02
DAV:   7    -0.613447017959E+03    0.35782E-03   -0.66707E-04 16704   0.613E-02    0.445E-02
DAV:   8    -0.613447166040E+03   -0.14808E-03   -0.28455E-04 15824   0.320E-02    0.274E-02
DAV:   9    -0.613447062407E+03    0.10363E-03   -0.64840E-05  9808   0.186E-02    0.156E-02
DAV:  10    -0.613447140770E+03   -0.78363E-04   -0.17402E-05  7176   0.116E-02    0.101E-02
DAV:  11    -0.613447099942E+03    0.40829E-04   -0.10333E-05  6960   0.956E-03    0.670E-03
DAV:  12    -0.613447102670E+03   -0.27282E-05   -0.38324E-06  6864   0.647E-03
  11 F= -.61344710E+03 E0= -.61344710E+03  d E =-.100626E-01
 trial-energy change:   -0.010063  1 .order   -0.009050   -0.013238   -0.004863
 step:   0.8460(harm=  1.0295)  dis= 0.00665  next Energy=  -613.447857 (dE=-0.108E-01)
 bond charge predicted
       N       E                     dE             d eps       ncg     rms          rms(c)
DAV:   1    -0.613448693669E+03   -0.15937E-02   -0.18144E-01 12272   0.919E-01    0.138E-01
DAV:   2    -0.613447678628E+03    0.10150E-02   -0.94997E-03 14768   0.226E-01    0.123E-01
DAV:   3    -0.613449660316E+03   -0.19817E-02   -0.20146E-03 17008   0.936E-02    0.962E-02
DAV:   4    -0.613448630791E+03    0.10295E-02   -0.10081E-03 16072   0.602E-02    0.590E-02
DAV:   5    -0.613447992674E+03    0.63812E-03   -0.14700E-03 15096   0.630E-02    0.749E-02
DAV:   6    -0.613448704864E+03   -0.71219E-03   -0.54608E-04 13520   0.454E-02    0.201E-02
DAV:   7    -0.613448483715E+03    0.22115E-03   -0.65140E-05 11024   0.189E-02    0.142E-02
DAV:   8    -0.613448593182E+03   -0.10947E-03   -0.24937E-05  7272   0.120E-02    0.889E-03
DAV:   9    -0.613448534092E+03    0.59090E-04   -0.10800E-05  7000   0.796E-03    0.713E-03
DAV:  10    -0.613448551667E+03   -0.17575E-04   -0.62992E-06  6784   0.498E-03    0.386E-03
DAV:  11    -0.613448558458E+03   -0.67918E-05   -0.13241E-06  6664   0.344E-03
  12 F= -.61344856E+03 E0= -.61344856E+03  d E =-.115184E-01
 curvature:  -0.53 expect dE=-0.175E-02 dE for cont linesearch -0.277E-03
 ZBRENT: increasing intervall
 opt :   1.2355  next Energy=  -613.448594 (dE=-0.116E-01)
 bond charge predicted
       N       E                     dE             d eps       ncg     rms          rms(c)
DAV:   1    -0.613448664959E+03   -0.11329E-03   -0.72533E-01 12160   0.184E+00    0.274E-01
DAV:   2    -0.613447650518E+03    0.10144E-02   -0.37654E-02 14656   0.449E-01    0.249E-01
DAV:   3    -0.613452187541E+03   -0.45370E-02   -0.75911E-03 16832   0.186E-01    0.194E-01
DAV:   4    -0.613448773057E+03    0.34145E-02   -0.48731E-03 16344   0.139E-01    0.140E-01
DAV:   5    -0.613449400652E+03   -0.62760E-03   -0.50746E-03 15872   0.127E-01    0.115E-01
DAV:   6    -0.613449384592E+03    0.16060E-04   -0.13673E-03 15264   0.747E-02    0.371E-02
DAV:   7    -0.613449208224E+03    0.17637E-03   -0.23722E-04 15552   0.369E-02    0.248E-02
DAV:   8    -0.613449406442E+03   -0.19822E-03   -0.51599E-05 11992   0.197E-02    0.155E-02
DAV:   9    -0.613449301133E+03    0.10531E-03   -0.20311E-05  7392   0.130E-02    0.111E-02
DAV:  10    -0.613449345807E+03   -0.44675E-04   -0.62451E-06  6944   0.808E-03    0.706E-03
DAV:  11    -0.613449357628E+03   -0.11821E-04   -0.34326E-06  6856   0.601E-03    0.505E-03
DAV:  12    -0.613449338421E+03    0.19207E-04   -0.21978E-06  6712   0.456E-03    0.271E-03
DAV:  13    -0.613449340659E+03   -0.22378E-05   -0.10588E-06  6584   0.294E-03
  13 F= -.61344934E+03 E0= -.61344934E+03  d E =-.123006E-01
 curvature:  -0.07 expect dE=-0.374E-03 dE for cont linesearch -0.327E-04
 ZBRENT: bracketing found
 ZBRENT: interpolating
 opt :   1.0451  next Energy=  -613.449685 (dE=-0.126E-01)
 bond charge predicted
       N       E                     dE             d eps       ncg     rms          rms(c)
DAV:   1    -0.613448413782E+03    0.92464E-03   -0.17332E-01 12136   0.897E-01    0.136E-01
DAV:   2    -0.613450774294E+03   -0.23605E-02   -0.92273E-03 14696   0.221E-01    0.127E-01
DAV:   3    -0.613448297275E+03    0.24770E-02   -0.20034E-03 16560   0.983E-02    0.101E-01
DAV:   4    -0.613449804581E+03   -0.15073E-02   -0.20746E-03 15864   0.807E-02    0.884E-02
DAV:   5    -0.613449493451E+03    0.31113E-03   -0.13663E-03 15232   0.653E-02    0.493E-02
DAV:   6    -0.613449264844E+03    0.22861E-03   -0.31030E-04 13880   0.317E-02    0.189E-02
DAV:   7    -0.613449378732E+03   -0.11389E-03   -0.50119E-05  9448   0.174E-02    0.145E-02
DAV:   8    -0.613449310716E+03    0.68016E-04   -0.29816E-05  7008   0.117E-02    0.926E-03
DAV:   9    -0.613449372519E+03   -0.61803E-04   -0.72923E-06  6928   0.755E-03    0.619E-03
DAV:  10    -0.613449318268E+03    0.54252E-04   -0.33501E-06  6696   0.508E-03    0.361E-03
DAV:  11    -0.613449320206E+03   -0.19384E-05   -0.13747E-06  6488   0.341E-03
  14 F= -.61344932E+03 E0= -.61344932E+03  d E =-.122801E-01
 curvature:  -0.72 expect dE=-0.260E-02 dE for cont linesearch -0.638E-07
 trial: gam= 0.14863 g(F)=  0.354E-02 g(S)=  0.821E-04 ort = 0.492E-04 (trialstep = 0.730E+00)
 search vector abs. value=  0.424E-02
 bond charge predicted
       N       E                     dE             d eps       ncg     rms          rms(c)
DAV:   1    -0.613449849205E+03   -0.53094E-03   -0.45918E-01 12240   0.140E+00    0.185E-01
DAV:   2    -0.613451554367E+03   -0.17052E-02   -0.19589E-02 14872   0.314E-01    0.161E-01
DAV:   3    -0.613452350102E+03   -0.79574E-03   -0.89239E-03 16480   0.169E-01    0.179E-01
DAV:   4    -0.613450444510E+03    0.19056E-02   -0.42599E-03 16256   0.118E-01    0.892E-02
DAV:   5    -0.613452059264E+03   -0.16148E-02   -0.10563E-03 18816   0.616E-02    0.820E-02
DAV:   6    -0.613450894761E+03    0.11645E-02   -0.44981E-04 16504   0.468E-02    0.395E-02
DAV:   7    -0.613451129588E+03   -0.23483E-03   -0.12401E-04 14584   0.281E-02    0.187E-02
DAV:   8    -0.613451058428E+03    0.71160E-04   -0.17571E-05  7496   0.113E-02    0.125E-02
DAV:   9    -0.613451157848E+03   -0.99420E-04   -0.10406E-05  7024   0.103E-02    0.110E-02
DAV:  10    -0.613451087034E+03    0.70813E-04   -0.12712E-05  6968   0.852E-03    0.927E-03
DAV:  11    -0.613451123512E+03   -0.36478E-04   -0.39977E-06  6904   0.584E-03    0.543E-03
DAV:  12    -0.613451088842E+03    0.34670E-04   -0.24004E-06  6736   0.420E-03    0.341E-03
DAV:  13    -0.613451098920E+03   -0.10078E-04   -0.11528E-06  6592   0.298E-03    0.262E-03
DAV:  14    -0.613451103132E+03   -0.42121E-05   -0.63242E-07  6528   0.224E-03
  15 F= -.61345110E+03 E0= -.61345110E+03  d E =-.178293E-02
 trial-energy change:   -0.001783  1 .order   -0.001801   -0.002651   -0.000951
 step:   1.1384(harm=  1.1384)  dis= 0.00496  next Energy=  -613.451387 (dE=-0.207E-02)
 bond charge predicted
       N       E                     dE             d eps       ncg     rms          rms(c)
DAV:   1    -0.613450925752E+03    0.17317E-03   -0.14361E-01 12312   0.782E-01    0.104E-01
DAV:   2    -0.613451461797E+03   -0.53604E-03   -0.63400E-03 14920   0.177E-01    0.967E-02
DAV:   3    -0.613451973937E+03   -0.51214E-03   -0.32188E-03 16336   0.996E-02    0.102E-01
DAV:   4    -0.613450908964E+03    0.10650E-02   -0.12717E-03 15464   0.654E-02    0.488E-02
DAV:   5    -0.613451893472E+03   -0.98451E-03   -0.22428E-04 15920   0.336E-02    0.481E-02
DAV:   6    -0.613451167500E+03    0.72597E-03   -0.20422E-04 13328   0.282E-02    0.269E-02
DAV:   7    -0.613451232749E+03   -0.65249E-04   -0.49854E-05  9608   0.181E-02    0.120E-02
DAV:   8    -0.613451317520E+03   -0.84771E-04   -0.92444E-06  7072   0.853E-03    0.804E-03
DAV:   9    -0.613451276811E+03    0.40710E-04   -0.63092E-06  6960   0.722E-03    0.949E-03
DAV:  10    -0.613451326064E+03   -0.49253E-04   -0.39887E-06  6856   0.650E-03    0.527E-03
DAV:  11    -0.613451306051E+03    0.20013E-04   -0.21761E-06  6640   0.416E-03    0.400E-03
DAV:  12    -0.613451309420E+03   -0.33695E-05   -0.14061E-06  6464   0.331E-03
  16 F= -.61345131E+03 E0= -.61345131E+03  d E =-.198921E-02
 curvature:  -0.66 expect dE=-0.949E-03 dE for cont linesearch -0.163E-08
 trial: gam= 0.39322 g(F)=  0.133E-02 g(S)=  0.968E-04 ort = 0.322E-05 (trialstep = 0.812E+00)
 search vector abs. value=  0.209E-02
 bond charge predicted
       N       E                     dE             d eps       ncg     rms          rms(c)
DAV:   1    -0.613451162628E+03    0.14342E-03   -0.21728E-01 12112   0.923E-01    0.154E-01
DAV:   2    -0.613452731512E+03   -0.15689E-02   -0.93432E-03 14728   0.221E-01    0.141E-01
DAV:   3    -0.613452750960E+03   -0.19449E-04   -0.56870E-03 17344   0.133E-01    0.142E-01
DAV:   4    -0.613451193206E+03    0.15578E-02   -0.27590E-03 16288   0.955E-02    0.902E-02
DAV:   5    -0.613452830504E+03   -0.16373E-02   -0.72843E-04 16616   0.511E-02    0.621E-02
DAV:   6    -0.613451986899E+03    0.84361E-03   -0.29190E-04 15856   0.351E-02    0.339E-02
DAV:   7    -0.613452000094E+03   -0.13195E-04   -0.17242E-04 11920   0.240E-02    0.193E-02
DAV:   8    -0.613452140378E+03   -0.14028E-03   -0.26063E-05  7432   0.134E-02    0.131E-02
DAV:   9    -0.613452074799E+03    0.65579E-04   -0.71708E-06  6952   0.873E-03    0.852E-03
DAV:  10    -0.613452052920E+03    0.21879E-04   -0.49392E-06  6784   0.603E-03    0.728E-03
DAV:  11    -0.613452066416E+03   -0.13496E-04   -0.26057E-06  6640   0.499E-03    0.370E-03
DAV:  12    -0.613452062767E+03    0.36487E-05   -0.10996E-06  6512   0.317E-03
  17 F= -.61345206E+03 E0= -.61345206E+03  d E =-.753347E-03
 trial-energy change:   -0.000753  1 .order   -0.000909   -0.001161   -0.000657
 step:   1.8705(harm=  1.8705)  dis= 0.00807  next Energy=  -613.452647 (dE=-0.134E-02)
 bond charge predicted
       N       E                     dE             d eps       ncg     rms          rms(c)
DAV:   1    -0.613450894683E+03    0.11717E-02   -0.36970E-01 12128   0.120E+00    0.201E-01
DAV:   2    -0.613453523512E+03   -0.26288E-02   -0.15494E-02 14720   0.286E-01    0.179E-01
DAV:   3    -0.613452916507E+03    0.60700E-03   -0.81708E-03 17512   0.166E-01    0.177E-01
DAV:   4    -0.613451188687E+03    0.17278E-02   -0.45630E-03 16048   0.125E-01    0.118E-01
DAV:   5    -0.613453324877E+03   -0.21362E-02   -0.12542E-03 17024   0.708E-02    0.785E-02
DAV:   6    -0.613452112776E+03    0.12121E-02   -0.38290E-04 17104   0.431E-02    0.336E-02
DAV:   7    -0.613452347933E+03   -0.23516E-03   -0.93279E-05 13480   0.257E-02    0.173E-02
DAV:   8    -0.613452354506E+03   -0.65733E-05   -0.16249E-05  7096   0.117E-02
  18 F= -.61345235E+03 E0= -.61345235E+03  d E =-.104509E-02
 curvature:  -1.36 expect dE=-0.137E-02 dE for cont linesearch -0.239E-08
 trial: gam= 0.70224 g(F)=  0.834E-03 g(S)=  0.170E-03 ort = 0.191E-05 (trialstep = 0.102E+01)
 search vector abs. value=  0.204E-02
 bond charge predicted
       N       E                     dE             d eps       ncg     rms          rms(c)
DAV:   1    -0.613452992018E+03   -0.64409E-03   -0.33110E-01 12648   0.114E+00    0.239E-01
DAV:   2    -0.613451932593E+03    0.10594E-02   -0.14422E-02 14856   0.278E-01    0.179E-01
DAV:   3    -0.613455681534E+03   -0.37489E-02   -0.10331E-02 17968   0.193E-01    0.225E-01
DAV:   4    -0.613453012145E+03    0.26694E-02   -0.61813E-03 16544   0.154E-01    0.102E-01
DAV:   5    -0.613452238526E+03    0.77362E-03   -0.15820E-03 17672   0.818E-02    0.866E-02
DAV:   6    -0.613453085319E+03   -0.84679E-03   -0.79157E-04 17648   0.601E-02    0.539E-02
DAV:   7    -0.613452746715E+03    0.33860E-03   -0.23548E-04 15256   0.333E-02    0.243E-02
DAV:   8    -0.613452603144E+03    0.14357E-03   -0.24505E-05  7592   0.113E-02    0.187E-02
DAV:   9    -0.613452859213E+03   -0.25607E-03   -0.25757E-05  7904   0.133E-02    0.162E-02
DAV:  10    -0.613452689195E+03    0.17002E-03   -0.15243E-05  7024   0.101E-02    0.605E-03
DAV:  11    -0.613452709660E+03   -0.20465E-04   -0.54307E-06  6872   0.661E-03    0.469E-03
DAV:  12    -0.613452703931E+03    0.57297E-05   -0.24968E-06  6728   0.501E-03
  19 F= -.61345270E+03 E0= -.61345270E+03  d E =-.349424E-03
 trial-energy change:   -0.000349  1 .order   -0.000587   -0.001029   -0.000144
 step:   1.1903(harm=  1.1903)  dis= 0.00520  next Energy=  -613.452953 (dE=-0.598E-03)
 bond charge predicted
       N       E                     dE             d eps       ncg     rms          rms(c)
DAV:   1    -0.613452759079E+03   -0.49419E-04   -0.87800E-03 12760   0.186E-01    0.381E-02
DAV:   2    -0.613452530986E+03    0.22809E-03   -0.37929E-04 14864   0.454E-02    0.284E-02
DAV:   3    -0.613453022703E+03   -0.49172E-03   -0.24262E-04 11584   0.306E-02    0.347E-02
DAV:   4    -0.613452695018E+03    0.32768E-03   -0.17961E-04  8352   0.257E-02    0.173E-02
DAV:   5    -0.613452617618E+03    0.77401E-04   -0.32701E-05  8032   0.140E-02    0.126E-02
DAV:   6    -0.613452766844E+03   -0.14923E-03   -0.14044E-05  7360   0.102E-02    0.794E-03
DAV:   7    -0.613452695039E+03    0.71805E-04   -0.20734E-06  6640   0.684E-03    0.402E-03
DAV:   8    -0.613452674096E+03    0.20943E-04   -0.20841E-06  6416   0.358E-03    0.371E-03
DAV:   9    -0.613452690578E+03   -0.16483E-04   -0.12336E-06  6392   0.327E-03    0.224E-03
DAV:  10    -0.613452685549E+03    0.50293E-05   -0.84878E-07  6376   0.248E-03
  20 F= -.61345269E+03 E0= -.61345269E+03  d E =-.331043E-03
 curvature:  -1.21 expect dE=-0.431E-03 dE for cont linesearch -0.240E-07
 trial: gam= 0.36448 g(F)=  0.180E-03 g(S)=  0.177E-03 ort =-0.637E-05 (trialstep = 0.106E+01)
 search vector abs. value=  0.623E-03
 bond charge predicted
       N       E                     dE             d eps       ncg     rms          rms(c)
DAV:   1    -0.613452803984E+03   -0.11341E-03   -0.12358E-01 13136   0.782E-01    0.221E-01
DAV:   2    -0.613453585679E+03   -0.78169E-03   -0.75713E-03 13880   0.204E-01    0.131E-01
DAV:   3    -0.613452267744E+03    0.13179E-02   -0.58190E-03 17560   0.146E-01    0.176E-01
DAV:   4    -0.613451708366E+03    0.55938E-03   -0.52865E-03 16288   0.136E-01    0.107E-01
DAV:   5    -0.613453436124E+03   -0.17278E-02   -0.20891E-03 16536   0.848E-02    0.586E-02
DAV:   6    -0.613452527258E+03    0.90887E-03   -0.35945E-04 17288   0.371E-02    0.281E-02
DAV:   7    -0.613452709441E+03   -0.18218E-03   -0.41616E-05 10240   0.169E-02    0.223E-02
DAV:   8    -0.613452617289E+03    0.92152E-04   -0.11027E-05  7128   0.100E-02    0.164E-02
DAV:   9    -0.613452727137E+03   -0.10985E-03   -0.14865E-05  6960   0.950E-03    0.133E-02
DAV:  10    -0.613452612296E+03    0.11484E-03   -0.13314E-05  6944   0.994E-03    0.520E-03
DAV:  11    -0.613452627389E+03   -0.15093E-04   -0.44125E-06  6632   0.547E-03    0.435E-03
DAV:  12    -0.613452634013E+03   -0.66240E-05   -0.26156E-06  6496   0.454E-03
  21 F= -.61345263E+03 E0= -.61345263E+03  d E =0.515361E-04
 trial-energy change:    0.000052  1 .order   -0.000152   -0.000375    0.000072
 step:   0.8863(harm=  0.8863)  dis= 0.00172  next Energy=  -613.452843 (dE=-0.157E-03)
 reached required accuracy - stopping structural energy minimisation
 writing wavefunctions
