 running on   40 total cores
 distrk:  each k-point on   40 cores,    1 groups
 distr:  one band on   10 cores,    4 groups
 using from now: INCAR     
 vasp.5.4.4.18Apr17-6-g9f103f2a35 (build Oct 23 2017 21:22:35) complex          
  
 POSCAR found :  4 types and      15 ions
 scaLAPACK will be used
 LDA part: xc-table for Pade appr. of Perdew
 POSCAR, INCAR and KPOINTS ok, starting setup
 FFT: planning ...
 WAVECAR not read
 entering main loop
       N       E                     dE             d eps       ncg     rms          rms(c)
DAV:   1     0.146782597049E+04    0.14678E+04   -0.62007E+04  2880   0.176E+03
DAV:   2     0.990434405241E+02   -0.13688E+04   -0.13150E+04  3136   0.544E+02
DAV:   3    -0.131169853534E+03   -0.23021E+03   -0.22637E+03  3776   0.209E+02
DAV:   4    -0.147183187771E+03   -0.16013E+02   -0.15853E+02  4752   0.575E+01
DAV:   5    -0.148095401203E+03   -0.91221E+00   -0.89719E+00  4632   0.101E+01    0.422E+01
DAV:   6    -0.121376611406E+03    0.26719E+02   -0.16618E+02  4064   0.657E+01    0.266E+01
DAV:   7    -0.121716151568E+03   -0.33954E+00   -0.27914E+01  4288   0.270E+01    0.178E+01
DAV:   8    -0.121700996287E+03    0.15155E-01   -0.11549E+01  3976   0.175E+01    0.833E+00
DAV:   9    -0.121096422908E+03    0.60457E+00   -0.22911E+00  3992   0.955E+00    0.148E+00
DAV:  10    -0.121097701333E+03   -0.12784E-02   -0.22669E-01  4424   0.223E+00    0.969E-01
DAV:  11    -0.121104842700E+03   -0.71414E-02   -0.42906E-02  4168   0.101E+00    0.341E-01
DAV:  12    -0.121102967789E+03    0.18749E-02   -0.95703E-03  4000   0.490E-01    0.150E-01
DAV:  13    -0.121103303048E+03   -0.33526E-03   -0.91866E-04  3816   0.150E-01    0.602E-02
DAV:  14    -0.121103601697E+03   -0.29865E-03   -0.35014E-04  4656   0.102E-01    0.321E-02
DAV:  15    -0.121103496078E+03    0.10562E-03   -0.77731E-05  3584   0.416E-02    0.185E-02
DAV:  16    -0.121103505289E+03   -0.92112E-05   -0.26212E-05  2536   0.239E-02
   1 F= -.12110351E+03 E0= -.12110351E+03  d E =-.121104E+03
 curvature:   0.00 expect dE= 0.000E+00 dE for cont linesearch  0.000E+00
 trial: gam= 0.00000 g(F)=  0.232E+00 g(S)=  0.489E+00 ort = 0.000E+00 (trialstep = 0.100E+01)
 search vector abs. value=  0.721E+00
 bond charge predicted
       N       E                     dE             d eps       ncg     rms          rms(c)
DAV:   1    -0.123961355033E+03   -0.28579E+01   -0.13458E+02  3632   0.797E+01    0.153E+01
DAV:   2    -0.122243678054E+03    0.17177E+01   -0.20398E+01  3656   0.234E+01    0.745E+00
DAV:   3    -0.121632834434E+03    0.61084E+00   -0.80866E+00  4376   0.135E+01    0.627E+00
DAV:   4    -0.121193683270E+03    0.43915E+00   -0.18611E+00  4120   0.860E+00    0.259E+00
DAV:   5    -0.121186968721E+03    0.67145E-02   -0.46410E-01  4480   0.302E+00    0.213E+00
DAV:   6    -0.121198224485E+03   -0.11256E-01   -0.47430E-02  4648   0.776E-01    0.179E+00
DAV:   7    -0.121216075589E+03   -0.17851E-01   -0.69527E-02  4000   0.986E-01    0.596E-01
DAV:   8    -0.121218123161E+03   -0.20476E-02   -0.28723E-02  4712   0.552E-01    0.218E-01
DAV:   9    -0.121217841239E+03    0.28192E-03   -0.24481E-03  4216   0.222E-01    0.157E-01
DAV:  10    -0.121218063014E+03   -0.22177E-03   -0.10415E-03  3880   0.114E-01    0.114E-01
DAV:  11    -0.121218105019E+03   -0.42005E-04   -0.19682E-03  4336   0.877E-02    0.532E-02
DAV:  12    -0.121218068218E+03    0.36801E-04   -0.11473E-04  3680   0.407E-02    0.276E-02
DAV:  13    -0.121218055474E+03    0.12743E-04   -0.22537E-05  2424   0.188E-02    0.197E-02
DAV:  14    -0.121218048011E+03    0.74629E-05   -0.95889E-06  1904   0.208E-02
   2 F= -.12121805E+03 E0= -.12121805E+03  d E =-.114543E+00
 trial-energy change:   -0.114543  1 .order   -0.128659   -0.721131    0.463814
 step:   0.5913(harm=  0.6086)  dis= 0.03059  next Energy=  -121.313791 (dE=-0.210E+00)
 bond charge predicted
       N       E                     dE             d eps       ncg     rms          rms(c)
DAV:   1    -0.121820912036E+03   -0.60286E+00   -0.22776E+01  3520   0.331E+01    0.636E+00
DAV:   2    -0.121446833419E+03    0.37408E+00   -0.29147E+00  3560   0.889E+00    0.269E+00
DAV:   3    -0.121400861102E+03    0.45972E-01   -0.12645E+00  4264   0.495E+00    0.233E+00
DAV:   4    -0.121302716761E+03    0.98144E-01   -0.37852E-01  4072   0.332E+00    0.677E-01
DAV:   5    -0.121306762119E+03   -0.40454E-02   -0.53323E-02  4640   0.909E-01    0.546E-01
DAV:   6    -0.121309483323E+03   -0.27212E-02   -0.77727E-03  4608   0.308E-01    0.453E-01
DAV:   7    -0.121312572148E+03   -0.30888E-02   -0.68825E-03  4448   0.328E-01    0.146E-01
DAV:   8    -0.121313104599E+03   -0.53245E-03   -0.26975E-03  4792   0.178E-01    0.563E-02
DAV:   9    -0.121313183978E+03   -0.79379E-04   -0.47917E-04  4224   0.746E-02    0.237E-02
DAV:  10    -0.121313178751E+03    0.52263E-05   -0.46144E-05  3000   0.305E-02
   3 F= -.12131318E+03 E0= -.12131318E+03  d E =-.209673E+00
 curvature:  -0.30 expect dE=-0.267E-01 dE for cont linesearch -0.996E-04
 trial: gam= 0.14305 g(F)=  0.625E-01 g(S)=  0.253E-01 ort =-0.154E-01 (trialstep = 0.918E+00)
 search vector abs. value=  0.981E-01
 bond charge predicted
       N       E                     dE             d eps       ncg     rms          rms(c)
DAV:   1    -0.121349081200E+03   -0.35897E-01   -0.10846E+01  3344   0.172E+01    0.157E+00
DAV:   2    -0.121373007341E+03   -0.23926E-01   -0.58028E-01  3184   0.336E+00    0.100E+00
DAV:   3    -0.121371467783E+03    0.15396E-02   -0.54516E-02  4336   0.107E+00    0.437E-01
DAV:   4    -0.121371886389E+03   -0.41861E-03   -0.22603E-02  4488   0.723E-01    0.414E-01
DAV:   5    -0.121370408790E+03    0.14776E-02   -0.19822E-02  4312   0.462E-01    0.172E-01
DAV:   6    -0.121370514497E+03   -0.10571E-03   -0.11747E-03  5016   0.132E-01    0.128E-01
DAV:   7    -0.121370626104E+03   -0.11161E-03   -0.17632E-04  4112   0.597E-02    0.457E-02
DAV:   8    -0.121370646762E+03   -0.20658E-04   -0.78135E-05  3872   0.374E-02    0.110E-02
DAV:   9    -0.121370650517E+03   -0.37550E-05   -0.88801E-06  1952   0.163E-02
   4 F= -.12137065E+03 E0= -.12137065E+03  d E =-.574718E-01
 trial-energy change:   -0.057472  1 .order   -0.056160   -0.078585   -0.033735
 step:   1.4584(harm=  1.6089)  dis= 0.06415  next Energy=  -121.380839 (dE=-0.677E-01)
 bond charge predicted
       N       E                     dE             d eps       ncg     rms          rms(c)
DAV:   1    -0.121374667038E+03   -0.40203E-02   -0.37463E+00  3320   0.102E+01    0.928E-01
DAV:   2    -0.121383104129E+03   -0.84371E-02   -0.19952E-01  3208   0.199E+00    0.593E-01
DAV:   3    -0.121382471166E+03    0.63296E-03   -0.17767E-02  4328   0.574E-01    0.244E-01
DAV:   4    -0.121382327394E+03    0.14377E-03   -0.25412E-03  4576   0.211E-01    0.129E-01
DAV:   5    -0.121382341752E+03   -0.14358E-04   -0.46804E-04  5152   0.105E-01    0.899E-02
DAV:   6    -0.121382434445E+03   -0.92694E-04   -0.26048E-04  4072   0.873E-02    0.645E-02
DAV:   7    -0.121382421540E+03    0.12906E-04   -0.11041E-04  3456   0.526E-02    0.243E-02
DAV:   8    -0.121382431183E+03   -0.96431E-05   -0.20021E-05  2272   0.231E-02
   5 F= -.12138243E+03 E0= -.12138243E+03  d E =-.692524E-01
 curvature:  -0.88 expect dE=-0.449E-01 dE for cont linesearch -0.363E-03
 trial: gam= 0.50899 g(F)=  0.465E-01 g(S)=  0.458E-02 ort = 0.637E-02 (trialstep = 0.103E+01)
 search vector abs. value=  0.830E-01
 bond charge predicted
       N       E                     dE             d eps       ncg     rms          rms(c)
DAV:   1    -0.121370669459E+03    0.11752E-01   -0.11463E+01  3272   0.186E+01    0.118E+00
DAV:   2    -0.121418038039E+03   -0.47369E-01   -0.65185E-01  3176   0.351E+00    0.900E-01
DAV:   3    -0.121420919753E+03   -0.28817E-02   -0.77854E-02  4768   0.119E+00    0.622E-01
DAV:   4    -0.121417763275E+03    0.31565E-02   -0.20592E-02  3984   0.678E-01    0.358E-01
DAV:   5    -0.121417495111E+03    0.26816E-03   -0.72696E-03  4264   0.344E-01    0.101E-01
DAV:   6    -0.121417251257E+03    0.24385E-03   -0.63493E-04  4416   0.126E-01    0.456E-02
DAV:   7    -0.121417220704E+03    0.30554E-04   -0.14301E-04  4160   0.543E-02    0.263E-02
DAV:   8    -0.121417207731E+03    0.12972E-04   -0.27744E-05  2440   0.279E-02    0.940E-03
DAV:   9    -0.121417217058E+03   -0.93266E-05   -0.75211E-06  1920   0.171E-02
   6 F= -.12141722E+03 E0= -.12141722E+03  d E =-.347859E-01
 trial-energy change:   -0.034786  1 .order   -0.035332   -0.055725   -0.014939
 step:   1.4504(harm=  1.4022)  dis= 0.05777  next Energy=  -121.420265 (dE=-0.378E-01)
 bond charge predicted
       N       E                     dE             d eps       ncg     rms          rms(c)
DAV:   1    -0.121412305441E+03    0.49023E-02   -0.19554E+00  3256   0.771E+00    0.485E-01
DAV:   2    -0.121419963932E+03   -0.76585E-02   -0.10974E-01  3184   0.143E+00    0.365E-01
DAV:   3    -0.121420664545E+03   -0.70061E-03   -0.11530E-02  4488   0.472E-01    0.245E-01
DAV:   4    -0.121419994655E+03    0.66989E-03   -0.34697E-03  3984   0.283E-01    0.143E-01
DAV:   5    -0.121420007028E+03   -0.12373E-04   -0.72676E-04  4168   0.139E-01    0.315E-02
DAV:   6    -0.121419982477E+03    0.24551E-04   -0.72590E-05  3816   0.388E-02    0.166E-02
DAV:   7    -0.121419981779E+03    0.69760E-06   -0.96430E-06  1912   0.177E-02
   7 F= -.12141998E+03 E0= -.12141998E+03  d E =-.375506E-01
 curvature:  -1.05 expect dE=-0.580E-02 dE for cont linesearch -0.276E-04
 ZBRENT: interpolating
 opt :   1.4114  next Energy=  -121.420011 (dE=-0.376E-01)
 bond charge predicted
       N       E                     dE             d eps       ncg     rms          rms(c)
DAV:   1    -0.121419909228E+03    0.73248E-04   -0.16523E-02  3248   0.708E-01    0.455E-02
DAV:   2    -0.121420027563E+03   -0.11833E-03   -0.90216E-04  3240   0.132E-01    0.342E-02
DAV:   3    -0.121419989343E+03    0.38220E-04   -0.10182E-04  4000   0.460E-02    0.234E-02
DAV:   4    -0.121420023716E+03   -0.34374E-04   -0.24296E-05  2200   0.279E-02    0.127E-02
DAV:   5    -0.121420010959E+03    0.12757E-04   -0.61812E-06  1800   0.149E-02    0.326E-03
DAV:   6    -0.121420011537E+03   -0.57841E-06   -0.15511E-06  1632   0.692E-03
   8 F= -.12142001E+03 E0= -.12142001E+03  d E =-.375804E-01
 curvature:  -1.10 expect dE=-0.544E-02 dE for cont linesearch -0.493E-06
 trial: gam= 0.18555 g(F)=  0.494E-02 g(S)=  0.146E-04 ort =-0.193E-03 (trialstep = 0.110E+01)
 search vector abs. value=  0.774E-02
 bond charge predicted
       N       E                     dE             d eps       ncg     rms          rms(c)
DAV:   1    -0.121416664289E+03    0.33467E-02   -0.14897E+00  3232   0.758E+00    0.353E-01
DAV:   2    -0.121423335264E+03   -0.66710E-02   -0.94329E-02  3128   0.139E+00    0.330E-01
DAV:   3    -0.121423557308E+03   -0.22204E-03   -0.98344E-03  4392   0.453E-01    0.190E-01
DAV:   4    -0.121423239480E+03    0.31783E-03   -0.14795E-03  4192   0.180E-01    0.129E-01
DAV:   5    -0.121423266515E+03   -0.27035E-04   -0.44960E-04  4432   0.103E-01    0.284E-02
DAV:   6    -0.121423245975E+03    0.20540E-04   -0.62977E-05  3336   0.323E-02    0.155E-02
DAV:   7    -0.121423247193E+03   -0.12174E-05   -0.72419E-06  1912   0.161E-02
   9 F= -.12142325E+03 E0= -.12142325E+03  d E =-.323566E-02
 trial-energy change:   -0.003236  1 .order   -0.003047   -0.005429   -0.000665
 step:   1.2252(harm=  1.2574)  dis= 0.01221  next Energy=  -121.423284 (dE=-0.327E-02)
 bond charge predicted
       N       E                     dE             d eps       ncg     rms          rms(c)
DAV:   1    -0.121423251303E+03   -0.53274E-05   -0.18241E-02  3216   0.841E-01    0.388E-02
DAV:   2    -0.121423282569E+03   -0.31267E-04   -0.11752E-03  3144   0.154E-01    0.367E-02
DAV:   3    -0.121423327739E+03   -0.45170E-04   -0.13314E-04  4224   0.517E-02    0.207E-02
DAV:   4    -0.121423303289E+03    0.24450E-04   -0.17493E-05  2072   0.215E-02    0.146E-02
DAV:   5    -0.121423309879E+03   -0.65897E-05   -0.59961E-06  1792   0.143E-02
  10 F= -.12142331E+03 E0= -.12142331E+03  d E =-.329834E-02
 curvature:  -0.95 expect dE=-0.124E-02 dE for cont linesearch -0.320E-05
 trial: gam= 0.21965 g(F)=  0.112E-02 g(S)=  0.195E-03 ort = 0.162E-03 (trialstep = 0.113E+01)
 search vector abs. value=  0.176E-02
 bond charge predicted
       N       E                     dE             d eps       ncg     rms          rms(c)
DAV:   1    -0.121423171783E+03    0.13151E-03   -0.50897E-01  3048   0.397E+00    0.266E-01
DAV:   2    -0.121424664037E+03   -0.14923E-02   -0.24978E-02  3112   0.725E-01    0.166E-01
DAV:   3    -0.121424484876E+03    0.17916E-03   -0.15392E-03  4360   0.186E-01    0.731E-02
DAV:   4    -0.121424460942E+03    0.23934E-04   -0.33679E-04  4312   0.897E-02    0.389E-02
DAV:   5    -0.121424432410E+03    0.28532E-04   -0.82266E-05  3296   0.437E-02    0.276E-02
DAV:   6    -0.121424460987E+03   -0.28577E-04   -0.20814E-05  2040   0.227E-02    0.227E-02
DAV:   7    -0.121424457176E+03    0.38114E-05   -0.19033E-05  2016   0.215E-02
  11 F= -.12142446E+03 E0= -.12142446E+03  d E =-.114730E-02
 trial-energy change:   -0.001147  1 .order   -0.001129   -0.001522   -0.000735
 step:   2.1805(harm=  2.1805)  dis= 0.00807  next Energy=  -121.424782 (dE=-0.147E-02)
 bond charge predicted
       N       E                     dE             d eps       ncg     rms          rms(c)
DAV:   1    -0.121423615187E+03    0.84580E-03   -0.44293E-01  3048   0.371E+00    0.247E-01
DAV:   2    -0.121424904324E+03   -0.12891E-02   -0.21514E-02  3088   0.675E-01    0.153E-01
DAV:   3    -0.121424763406E+03    0.14092E-03   -0.13341E-03  4360   0.173E-01    0.664E-02
DAV:   4    -0.121424735556E+03    0.27849E-04   -0.27201E-04  4312   0.799E-02    0.339E-02
DAV:   5    -0.121424725159E+03    0.10397E-04   -0.49090E-05  3136   0.344E-02    0.248E-02
DAV:   6    -0.121424754530E+03   -0.29371E-04   -0.21251E-05  2040   0.229E-02    0.217E-02
DAV:   7    -0.121424744865E+03    0.96645E-05   -0.19955E-05  2024   0.219E-02
  12 F= -.12142474E+03 E0= -.12142474E+03  d E =-.143499E-02
 curvature:  -1.42 expect dE=-0.214E-02 dE for cont linesearch -0.403E-05
 trial: gam= 1.23156 g(F)=  0.436E-03 g(S)=  0.107E-02 ort =-0.707E-04 (trialstep = 0.588E+00)
 search vector abs. value=  0.400E-02
 bond charge predicted
       N       E                     dE             d eps       ncg     rms          rms(c)
DAV:   1    -0.121425349051E+03   -0.59452E-03   -0.35477E-01  2992   0.288E+00    0.266E-01
DAV:   2    -0.121425493531E+03   -0.14448E-03   -0.13667E-02  3376   0.574E-01    0.168E-01
DAV:   3    -0.121425611141E+03   -0.11761E-03   -0.28088E-03  4288   0.233E-01    0.132E-01
DAV:   4    -0.121425240813E+03    0.37033E-03   -0.12083E-03  4264   0.161E-01    0.448E-02
DAV:   5    -0.121425254616E+03   -0.13803E-04   -0.18380E-04  4256   0.552E-02    0.269E-02
DAV:   6    -0.121425252647E+03    0.19690E-05   -0.12959E-05  2192   0.154E-02
  13 F= -.12142525E+03 E0= -.12142525E+03  d E =-.507782E-03
 trial-energy change:   -0.000508  1 .order   -0.000588   -0.000836   -0.000340
 step:   0.9925(harm=  0.9925)  dis= 0.00618  next Energy=  -121.425450 (dE=-0.705E-03)
 bond charge predicted
       N       E                     dE             d eps       ncg     rms          rms(c)
DAV:   1    -0.121425326699E+03   -0.72083E-04   -0.16689E-01  2992   0.198E+00    0.182E-01
DAV:   2    -0.121425332094E+03   -0.53955E-05   -0.61642E-03  3360   0.388E-01    0.112E-01
DAV:   3    -0.121425456474E+03   -0.12438E-03   -0.12792E-03  4312   0.157E-01    0.870E-02
DAV:   4    -0.121425249062E+03    0.20741E-03   -0.57899E-04  4024   0.111E-01    0.302E-02
DAV:   5    -0.121425264836E+03   -0.15773E-04   -0.87363E-05  3768   0.385E-02    0.197E-02
DAV:   6    -0.121425263330E+03    0.15056E-05   -0.65171E-06  1896   0.128E-02
  14 F= -.12142526E+03 E0= -.12142526E+03  d E =-.518465E-03
 curvature:  -1.40 expect dE=-0.311E-03 dE for cont linesearch -0.509E-05
 ZBRENT: interpolating
 opt :   0.9228  next Energy=  -121.425268 (dE=-0.523E-03)
 bond charge predicted
       N       E                     dE             d eps       ncg     rms          rms(c)
DAV:   1    -0.121425269356E+03   -0.45208E-05   -0.51221E-03  3016   0.345E-01    0.328E-02
DAV:   2    -0.121425307276E+03   -0.37920E-04   -0.23545E-04  3544   0.740E-02    0.226E-02
DAV:   3    -0.121425265647E+03    0.41630E-04   -0.46938E-05  2352   0.304E-02    0.180E-02
DAV:   4    -0.121425279413E+03   -0.13766E-04   -0.14906E-05  2040   0.240E-02    0.761E-03
DAV:   5    -0.121425278342E+03    0.10707E-05   -0.49429E-06  1600   0.114E-02
  15 F= -.12142528E+03 E0= -.12142528E+03  d E =-.533477E-03
 curvature:  -1.16 expect dE=-0.271E-03 dE for cont linesearch -0.499E-05
 ZBRENT: bisectioning
 opt :   0.7555  next Energy=  -121.425302 (dE=-0.558E-03)
 bond charge predicted
       N       E                     dE             d eps       ncg     rms          rms(c)
DAV:   1    -0.121425269563E+03    0.98500E-05   -0.28656E-02  2984   0.820E-01    0.745E-02
DAV:   2    -0.121425354470E+03   -0.84907E-04   -0.10777E-03  3344   0.162E-01    0.470E-02
DAV:   3    -0.121425261351E+03    0.93119E-04   -0.24337E-04  3856   0.660E-02    0.365E-02
DAV:   4    -0.121425290090E+03   -0.28739E-04   -0.83697E-05  3048   0.464E-02    0.132E-02
DAV:   5    -0.121425283517E+03    0.65729E-05   -0.13451E-05  1864   0.183E-02
  16 F= -.12142528E+03 E0= -.12142528E+03  d E =-.538652E-03
 curvature:  -5.59 expect dE=-0.131E-02 dE for cont linesearch -0.932E-05
 ZBRENT: interpolating
 opt :   0.8196  next Energy=  -121.425286 (dE=-0.541E-03)
 bond charge predicted
       N       E                     dE             d eps       ncg     rms          rms(c)
DAV:   1    -0.121425294900E+03   -0.48101E-05   -0.42898E-03  3024   0.317E-01    0.311E-02
DAV:   2    -0.121425277911E+03    0.16989E-04   -0.18222E-04  3400   0.660E-02    0.196E-02
DAV:   3    -0.121425309663E+03   -0.31753E-04   -0.36282E-05  2160   0.270E-02    0.163E-02
DAV:   4    -0.121425289511E+03    0.20153E-04   -0.14936E-05  1968   0.228E-02    0.626E-03
DAV:   5    -0.121425290625E+03   -0.11140E-05   -0.39799E-06  1496   0.103E-02
  17 F= -.12142529E+03 E0= -.12142529E+03  d E =-.545759E-03
 curvature:  -1.57 expect dE=-0.354E-03 dE for cont linesearch -0.193E-05
 ZBRENT: bisectioning
 opt :   0.8712  next Energy=  -121.425294 (dE=-0.549E-03)
 bond charge predicted
       N       E                     dE             d eps       ncg     rms          rms(c)
DAV:   1    -0.121425293292E+03   -0.37815E-05   -0.27168E-03  2984   0.253E-01    0.223E-02
DAV:   2    -0.121425277901E+03    0.15391E-04   -0.10278E-04  3168   0.507E-02    0.144E-02
DAV:   3    -0.121425300885E+03   -0.22984E-04   -0.19795E-05  1784   0.208E-02    0.115E-02
DAV:   4    -0.121425286768E+03    0.14117E-04   -0.82798E-06  1664   0.172E-02    0.508E-03
DAV:   5    -0.121425287565E+03   -0.79698E-06   -0.30648E-06  1496   0.911E-03
  18 F= -.12142529E+03 E0= -.12142529E+03  d E =-.542700E-03
 curvature:  -2.75 expect dE=-0.608E-03 dE for cont linesearch -0.118E-06
 trial: gam= 0.01277 g(F)=  0.104E-03 g(S)=  0.117E-03 ort =-0.131E-04 (trialstep = 0.645E+00)
 search vector abs. value=  0.221E-03
 bond charge predicted
       N       E                     dE             d eps       ncg     rms          rms(c)
DAV:   1    -0.121425435721E+03   -0.14895E-03   -0.17365E-02  2880   0.635E-01    0.718E-02
DAV:   2    -0.121425406087E+03    0.29634E-04   -0.66789E-04  3312   0.127E-01    0.420E-02
DAV:   3    -0.121425292903E+03    0.11318E-03   -0.18607E-04  3776   0.668E-02    0.361E-02
DAV:   4    -0.121425320014E+03   -0.27111E-04   -0.11651E-04  3280   0.498E-02    0.127E-02
DAV:   5    -0.121425311747E+03    0.82666E-05   -0.10332E-05  1888   0.206E-02
  19 F= -.12142531E+03 E0= -.12142531E+03  d E =-.241822E-04
 trial-energy change:   -0.000024  1 .order   -0.000098   -0.000142   -0.000054
 step:   1.0365(harm=  1.0365)  dis= 0.00140  next Energy=  -121.425402 (dE=-0.114E-03)
 bond charge predicted
       N       E                     dE             d eps       ncg     rms          rms(c)
DAV:   1    -0.121425363238E+03   -0.43224E-04   -0.64012E-03  2880   0.385E-01    0.433E-02
DAV:   2    -0.121425349004E+03    0.14234E-04   -0.24899E-04  3408   0.786E-02    0.257E-02
DAV:   3    -0.121425284551E+03    0.64453E-04   -0.70782E-05  2912   0.417E-02    0.221E-02
DAV:   4    -0.121425305685E+03   -0.21134E-04   -0.43978E-05  2280   0.331E-02    0.795E-03
DAV:   5    -0.121425301781E+03    0.39038E-05   -0.51302E-06  1840   0.162E-02
  20 F= -.12142530E+03 E0= -.12142530E+03  d E =-.142155E-04
 curvature:  -0.52 expect dE=-0.893E-05 dE for cont linesearch -0.513E-07
 trial: gam= 0.09654 g(F)=  0.147E-04 g(S)=  0.251E-05 ort =-0.467E-05 (trialstep = 0.723E+00)
 search vector abs. value=  0.184E-04
 reached required accuracy - stopping structural energy minimisation
 writing wavefunctions
