<?xml version="1.0" encoding="ISO-8859-1"?>
<modeling>
 <generator>
  <i name="program" type="string">vasp </i>
  <i name="version" type="string">5.4.4.18Apr17-6-g9f103f2a35  </i>
  <i name="subversion" type="string">(build Oct 23 2017 21:22:35) complex            parallel </i>
  <i name="platform" type="string">LinuxIFC </i>
  <i name="date" type="string">2017 12 27 </i>
  <i name="time" type="string">08:43:20 </i>
 </generator>
 <incar>
  <i type="string" name="PREC">accurate</i>
  <i type="int" name="IBRION">    -1</i>
  <i name="EDIFF">      0.00001000</i>
  <i name="EDIFFG">     -0.01000000</i>
  <i type="int" name="ISIF">     2</i>
  <i name="ENCUT">    500.00000000</i>
  <i type="int" name="ISMEAR">    -5</i>
  <v type="int" name="KPOINT_BSE">    -1     0     0     0</v>
 </incar>
 <structure name="primitive_cell" >
  <crystal>
   <varray name="basis" >
    <v>       4.02984383       4.02984383      -4.02984383 </v>
    <v>       4.02984383      -4.02984383       4.02984383 </v>
    <v>      -4.02984383      -4.02984383      -4.02984383 </v>
   </varray>
   <i name="volume">    261.77287396 </i>
   <varray name="rec_basis" >
    <v>       0.12407429       0.00000000      -0.12407429 </v>
    <v>       0.12407429      -0.12407429       0.00000000 </v>
    <v>       0.00000000      -0.12407429      -0.12407429 </v>
   </varray>
  </crystal>
  <varray name="positions" >
   <v>      -0.50000000       0.00000000       0.00000000 </v>
   <v>      -0.25000000       0.25000000       0.00000000 </v>
   <v>       0.25000000       0.00000000      -0.25000000 </v>
   <v>       0.25000000      -0.25000000       0.00000000 </v>
   <v>      -0.25000000       0.00000000       0.25000000 </v>
   <v>      -0.50000000      -0.25160830      -0.25160830 </v>
   <v>      -0.50000000       0.25160830       0.25160830 </v>
   <v>      -0.50000000       0.00000000      -0.50000000 </v>
   <v>       0.00000000      -0.50000000      -0.50000000 </v>
   <v>       0.00000000       0.00000000       0.00000000 </v>
   <v>      -0.50000000      -0.50000000       0.00000000 </v>
   <v>       0.00000000      -0.50000000       0.00000000 </v>
   <v>       0.00000000       0.00000000      -0.50000000 </v>
   <v>      -0.50000000      -0.50000000      -0.50000000 </v>
   <v>      -0.25160830      -0.50000000      -0.25160830 </v>
   <v>       0.25160830       0.25160830      -0.50000000 </v>
   <v>      -0.25160830      -0.25160830      -0.50000000 </v>
   <v>       0.25160830      -0.50000000       0.25160830 </v>
   <v>       0.00000000       0.25000000      -0.25000000 </v>
   <v>       0.00000000      -0.25000000       0.25000000 </v>
  </varray>
 </structure>
 <varray name="primitive_index" >
  <v type="int" >        1 </v>
  <v type="int" >        4 </v>
  <v type="int" >        6 </v>
  <v type="int" >        7 </v>
  <v type="int" >       12 </v>
  <v type="int" >        5 </v>
  <v type="int" >       14 </v>
  <v type="int" >       16 </v>
  <v type="int" >       17 </v>
  <v type="int" >       18 </v>
  <v type="int" >       19 </v>
  <v type="int" >        2 </v>
  <v type="int" >        3 </v>
  <v type="int" >       20 </v>
  <v type="int" >        9 </v>
  <v type="int" >       10 </v>
  <v type="int" >       13 </v>
  <v type="int" >       15 </v>
  <v type="int" >        8 </v>
  <v type="int" >       11 </v>
 </varray>
 <kpoints>
  <generation param="Gamma">
   <v type="int" name="divisions">       5        5        5 </v>
   <v name="usershift">      0.00000000       0.00000000       0.00000000 </v>
   <v name="genvec1">      0.20000000       0.00000000       0.00000000 </v>
   <v name="genvec2">      0.00000000       0.20000000       0.00000000 </v>
   <v name="genvec3">      0.00000000       0.00000000       0.20000000 </v>
   <v name="shift">      0.00000000       0.00000000       0.00000000 </v>
  </generation>
  <varray name="kpointlist" >
   <v>       0.00000000       0.00000000       0.00000000 </v>
   <v>       0.20000000       0.00000000       0.00000000 </v>
   <v>       0.40000000       0.00000000       0.00000000 </v>
   <v>       0.20000000       0.20000000       0.00000000 </v>
   <v>       0.40000000       0.20000000       0.00000000 </v>
   <v>       0.20000000       0.20000000       0.20000000 </v>
   <v>      -0.20000000       0.20000000       0.20000000 </v>
   <v>      -0.40000000       0.40000000       0.20000000 </v>
   <v>      -0.40000000      -0.40000000       0.20000000 </v>
   <v>      -0.40000000       0.40000000       0.40000000 </v>
  </varray>
  <varray name="weights" >
   <v>       0.00800000 </v>
   <v>       0.09600000 </v>
   <v>       0.09600000 </v>
   <v>       0.19200000 </v>
   <v>       0.19200000 </v>
   <v>       0.06400000 </v>
   <v>       0.04800000 </v>
   <v>       0.19200000 </v>
   <v>       0.06400000 </v>
   <v>       0.04800000 </v>
  </varray>
  <varray name="tetrahedronlist"  type="int" >
   <v type="int" >       12        2        2        4        4 </v>
   <v type="int" >        4        1        2        2        4 </v>
   <v type="int" >        4        2        4        4        6 </v>
   <v type="int" >       12        3        4        5        6 </v>
   <v type="int" >        4        2        3        4        6 </v>
   <v type="int" >        4        3        5        6        6 </v>
   <v type="int" >        4        3        3        5        6 </v>
   <v type="int" >        8        3        4        4        6 </v>
   <v type="int" >       12        2        3        4        4 </v>
   <v type="int" >       12        2        2        4        7 </v>
   <v type="int" >        8        1        2        2        7 </v>
   <v type="int" >        4        1        2        4        7 </v>
   <v type="int" >       16        3        4        5        5 </v>
   <v type="int" >        4        2        3        4        5 </v>
   <v type="int" >        4        2        4        4        5 </v>
   <v type="int" >       28        4        5        5        6 </v>
   <v type="int" >        8        4        5        6        6 </v>
   <v type="int" >       12        4        4        5        6 </v>
   <v type="int" >        8        5        5        5        6 </v>
   <v type="int" >       16        5        5        6        6 </v>
   <v type="int" >        8        5        6        6        6 </v>
   <v type="int" >        4        4        5        5        5 </v>
   <v type="int" >       24        3        4        5        8 </v>
   <v type="int" >        8        4        4        5        8 </v>
   <v type="int" >       12        2        3        4        8 </v>
   <v type="int" >        4        2        4        4        8 </v>
   <v type="int" >        4        2        4        8        8 </v>
   <v type="int" >        4        2        7        8        8 </v>
   <v type="int" >        8        2        4        7        8 </v>
   <v type="int" >        4        2        2        4        8 </v>
   <v type="int" >        4        2        2        7        8 </v>
   <v type="int" >        4        2        3        5        8 </v>
   <v type="int" >        4        2        4        5        8 </v>
   <v type="int" >       12        3        4        4        5 </v>
   <v type="int" >        4        3        3        4        5 </v>
   <v type="int" >        4        4        4        4        5 </v>
   <v type="int" >        4        4        4        5        5 </v>
   <v type="int" >       16        4        5        5        8 </v>
   <v type="int" >       12        3        3        5        8 </v>
   <v type="int" >       12        3        5        5        8 </v>
   <v type="int" >        4        3        5        8        9 </v>
   <v type="int" >        4        3        8        8        9 </v>
   <v type="int" >       12        3        5        8        8 </v>
   <v type="int" >        8        4        5        5        9 </v>
   <v type="int" >        4        3        4        5        9 </v>
   <v type="int" >        4        3        4        8        9 </v>
   <v type="int" >       12        4        5        8        9 </v>
   <v type="int" >        8        4        8        8        9 </v>
   <v type="int" >        4        3        4        8        8 </v>
   <v type="int" >        4        3        3        4        8 </v>
   <v type="int" >        8        2        2        2        4 </v>
   <v type="int" >        4        2        2        3        4 </v>
   <v type="int" >       12        2        4        4        7 </v>
   <v type="int" >        8        2        4        4        4 </v>
   <v type="int" >       16        2        3        4        7 </v>
   <v type="int" >        4        3        4        4        7 </v>
   <v type="int" >       12        3        4        7        8 </v>
   <v type="int" >        4        3        7        8        8 </v>
   <v type="int" >        6        5        5        8        8 </v>
   <v type="int" >       16        5        8        8        9 </v>
   <v type="int" >        4        5        5        5        8 </v>
   <v type="int" >       16        5        5        8        9 </v>
   <v type="int" >        4        4        5        7        8 </v>
   <v type="int" >        4        5        7        8        8 </v>
   <v type="int" >        4        3        4        5        7 </v>
   <v type="int" >        4        3        5        7        8 </v>
   <v type="int" >        4        2        2        3        7 </v>
   <v type="int" >        8        1        2        2        2 </v>
   <v type="int" >        4        2        2        2        2 </v>
   <v type="int" >        4        2        2        2        7 </v>
   <v type="int" >        8        4        4        7        8 </v>
   <v type="int" >        2        3        3        5        5 </v>
   <v type="int" >        4        5        5        6        9 </v>
   <v type="int" >        4        4        5        6        9 </v>
   <v type="int" >        4        4        8        9       10 </v>
   <v type="int" >        4        7        8        8       10 </v>
   <v type="int" >        4        4        7        8       10 </v>
   <v type="int" >        4        7        8        9       10 </v>
   <v type="int" >        4        4        7        8        9 </v>
   <v type="int" >        8        3        5        5        6 </v>
   <v type="int" >        4        3        4        6        8 </v>
   <v type="int" >        4        3        5        6        8 </v>
   <v type="int" >        8        4        5        8        8 </v>
   <v type="int" >        4        4        5        6        8 </v>
   <v type="int" >        4        5        5        6        8 </v>
   <v type="int" >        8        5        8        8       10 </v>
   <v type="int" >        8        5        8        9       10 </v>
   <v type="int" >       20        8        8        9       10 </v>
   <v type="int" >       12        8        9       10       10 </v>
   <v type="int" >        4        8       10       10       10 </v>
   <v type="int" >        4        8        8       10       10 </v>
   <v type="int" >        8        8        8        8       10 </v>
   <v type="int" >        4        5        8        8        8 </v>
   <v type="int" >        4        3        4        4        4 </v>
   <v type="int" >        4        4        4        8        8 </v>
   <v type="int" >        4        3        4        4        8 </v>
   <v type="int" >        4        7        8        8        8 </v>
   <v type="int" >        4        4        7        8        8 </v>
   <v type="int" >        4        4        8        8        8 </v>
   <v type="int" >        4        8        8        8        9 </v>
   <v type="int" >        6        8        8        9        9 </v>
   <v type="int" >        8        8        9        9       10 </v>
   <v type="int" >        6        9        9       10       10 </v>
   <v type="int" >        4        3        5        5        5 </v>
   <v type="int" >        4        5        8        9        9 </v>
   <v type="int" >        2       10       10       10       10 </v>
   <v type="int" >        4        9       10       10       10 </v>
  </varray>
  <i name="volumeweight">      0.00133333 </i>
 </kpoints>
 <parameters>
  <separator name="general" >
   <i type="string" name="SYSTEM">unknown system</i>
   <i type="logical" name="LCOMPAT"> F  </i>
  </separator>
  <separator name="electronic" >
   <i type="string" name="PREC">accura</i>
   <i name="ENMAX">    500.00000000</i>
   <i name="ENAUG">    605.39200000</i>
   <i name="EDIFF">      0.00001000</i>
   <i type="int" name="IALGO">    38</i>
   <i type="int" name="IWAVPR">    10</i>
   <i type="int" name="NBANDS">   100</i>
   <i name="NELECT">    163.00000000</i>
   <i type="int" name="TURBO">     0</i>
   <i type="int" name="IRESTART">     0</i>
   <i type="int" name="NREBOOT">     0</i>
   <i type="int" name="NMIN">     0</i>
   <i name="EREF">      0.00000000</i>
   <separator name="electronic smearing" >
    <i type="int" name="ISMEAR">    -5</i>
    <i name="SIGMA">      0.20000000</i>
    <i name="KSPACING">      0.50000000</i>
    <i type="logical" name="KGAMMA"> T  </i>
   </separator>
   <separator name="electronic projectors" >
    <i type="logical" name="LREAL"> F  </i>
    <v name="ROPT">      0.00000000      0.00000000      0.00000000      0.00000000</v>
    <i type="int" name="LMAXPAW">  -100</i>
    <i type="int" name="LMAXMIX">     2</i>
    <i type="logical" name="NLSPLINE"> F  </i>
   </separator>
   <separator name="electronic startup" >
    <i type="int" name="ISTART">     0</i>
    <i type="int" name="ICHARG">     2</i>
    <i type="int" name="INIWAV">     1</i>
   </separator>
   <separator name="electronic spin" >
    <i type="int" name="ISPIN">     1</i>
    <i type="logical" name="LNONCOLLINEAR"> F  </i>
    <v name="MAGMOM">      1.00000000      1.00000000      1.00000000      1.00000000      1.00000000      1.00000000      1.00000000      1.00000000      1.00000000      1.00000000      1.00000000      1.00000000      1.00000000      1.00000000      1.00000000      1.00000000      1.00000000      1.00000000      1.00000000      1.00000000
</v>
    <i name="NUPDOWN">     -1.00000000</i>
    <i type="logical" name="LSORBIT"> F  </i>
    <v name="SAXIS">      0.00000000      0.00000000      1.00000000</v>
    <i type="logical" name="LSPIRAL"> F  </i>
    <v name="QSPIRAL">      0.00000000      0.00000000      0.00000000</v>
    <i type="logical" name="LZEROZ"> F  </i>
   </separator>
   <separator name="electronic exchange-correlation" >
    <i type="logical" name="LASPH"> F  </i>
    <i type="logical" name="LMETAGGA"> F  </i>
   </separator>
   <separator name="electronic convergence" >
    <i type="int" name="NELM">    60</i>
    <i type="int" name="NELMDL">     0</i>
    <i type="int" name="NELMIN">     2</i>
    <i name="ENINI">    500.00000000</i>
    <separator name="electronic convergence detail" >
     <i type="logical" name="LDIAG"> T  </i>
     <i type="logical" name="LSUBROT"> F  </i>
     <i name="WEIMIN">      0.00000000</i>
     <i name="EBREAK">      0.00000003</i>
     <i name="DEPER">      0.30000000</i>
     <i type="int" name="NRMM">     4</i>
     <i name="TIME">      0.40000000</i>
    </separator>
   </separator>
   <separator name="electronic mixer" >
    <i name="AMIX">      0.40000000</i>
    <i name="BMIX">      1.00000000</i>
    <i name="AMIN">      0.10000000</i>
    <i name="AMIX_MAG">      1.60000000</i>
    <i name="BMIX_MAG">      1.00000000</i>
    <separator name="electronic mixer details" >
     <i type="int" name="IMIX">     4</i>
     <i type="logical" name="MIXFIRST"> F  </i>
     <i type="int" name="MAXMIX">   -45</i>
     <i name="WC">    100.00000000</i>
     <i type="int" name="INIMIX">     1</i>
     <i type="int" name="MIXPRE">     1</i>
     <i type="int" name="MREMOVE">     5</i>
    </separator>
   </separator>
   <separator name="electronic dipolcorrection" >
    <i type="logical" name="LDIPOL"> F  </i>
    <i type="logical" name="LMONO"> F  </i>
    <i type="int" name="IDIPOL">     0</i>
    <i name="EPSILON">      1.00000000</i>
    <v name="DIPOL">   -100.00000000   -100.00000000   -100.00000000</v>
    <i name="EFIELD">      0.00000000</i>
   </separator>
  </separator>
  <separator name="grids" >
   <i type="int" name="NGX">    54</i>
   <i type="int" name="NGY">    54</i>
   <i type="int" name="NGZ">    54</i>
   <i type="int" name="NGXF">   108</i>
   <i type="int" name="NGYF">   108</i>
   <i type="int" name="NGZF">   108</i>
   <i type="logical" name="ADDGRID"> F  </i>
  </separator>
  <separator name="ionic" >
   <i type="int" name="NSW">     0</i>
   <i type="int" name="IBRION">    -1</i>
   <i type="int" name="MDALGO">     0</i>
   <i type="int" name="ISIF">     2</i>
   <i name="PSTRESS">      0.00000000</i>
   <i name="EDIFFG">     -0.01000000</i>
   <i type="int" name="NFREE">     0</i>
   <i name="POTIM">      0.50000000</i>
   <i name="SMASS">     -3.00000000</i>
   <i name="SCALEE">      1.00000000</i>
  </separator>
  <separator name="ionic md" >
   <i name="TEBEG">      0.00010000</i>
   <i name="TEEND">      0.00010000</i>
   <i type="int" name="NBLOCK">     1</i>
   <i type="int" name="KBLOCK">     1</i>
   <i type="int" name="NPACO">   256</i>
   <i name="APACO">     16.00000000</i>
  </separator>
  <separator name="symmetry" >
   <i type="int" name="ISYM">     2</i>
   <i name="SYMPREC">      0.00001000</i>
  </separator>
  <separator name="dos" >
   <i type="int" name="LORBIT">     0</i>
   <v name="RWIGS">     -1.00000000     -1.00000000     -1.00000000     -1.00000000</v>
   <i type="int" name="NEDOS">   301</i>
   <i name="EMIN">     10.00000000</i>
   <i name="EMAX">    -10.00000000</i>
   <i name="EFERMI">      0.00000000</i>
  </separator>
  <separator name="writing" >
   <i type="int" name="NWRITE">     2</i>
   <i type="logical" name="LWAVE"> T  </i>
   <i type="logical" name="LDOWNSAMPLE"> F  </i>
   <i type="logical" name="LCHARG"> T  </i>
   <i type="logical" name="LPARD"> F  </i>
   <i type="logical" name="LVTOT"> F  </i>
   <i type="logical" name="LVHAR"> F  </i>
   <i type="logical" name="LELF"> F  </i>
   <i type="logical" name="LOPTICS"> F  </i>
   <v name="STM">      0.00000000      0.00000000      0.00000000      0.00000000      0.00000000      0.00000000      0.00000000</v>
  </separator>
  <separator name="performance" >
   <i type="int" name="NPAR">     4</i>
   <i type="int" name="NSIM">     4</i>
   <i type="int" name="NBLK">    -1</i>
   <i type="logical" name="LPLANE"> T  </i>
   <i type="logical" name="LSCALAPACK"> T  </i>
   <i type="logical" name="LSCAAWARE"> F  </i>
   <i type="logical" name="LSCALU"> F  </i>
   <i type="logical" name="LASYNC"> F  </i>
   <i type="logical" name="LORBITALREAL"> F  </i>
  </separator>
  <separator name="miscellaneous" >
   <i type="int" name="IDIOT">     3</i>
   <i type="int" name="ISPECIAL">     0</i>
   <i type="logical" name="LMUSIC"> F  </i>
   <v name="POMASS">     92.91000000     16.00000000     87.62000000     47.88000000</v>
   <v name="DARWINR">      0.00000000      0.00000000      0.00000000      0.00000000</v>
   <v name="DARWINV">      1.00000000      1.00000000      1.00000000      1.00000000</v>
   <i type="logical" name="LCORR"> T  </i>
  </separator>
  <i type="logical" name="GGA_COMPAT"> T  </i>
  <i type="logical" name="LBERRY"> F  </i>
  <i type="int" name="ICORELEVEL">     0</i>
  <i type="logical" name="LDAU"> F  </i>
  <i type="int" name="I_CONSTRAINED_M">     0</i>
  <separator name="electronic exchange-correlation" >
   <i type="string" name="GGA">--</i>
   <i type="int" name="VOSKOWN">     0</i>
   <i type="logical" name="LHFCALC"> F  </i>
   <i type="string" name="PRECFOCK"></i>
   <i type="logical" name="LSYMGRAD"> F  </i>
   <i type="logical" name="LHFONE"> F  </i>
   <i type="logical" name="LRHFCALC"> F  </i>
   <i type="logical" name="LTHOMAS"> F  </i>
   <i type="logical" name="LMODELHF"> F  </i>
   <i name="ENCUT4O">     -1.00000000</i>
   <i type="int" name="EXXOEP">     0</i>
   <i type="int" name="FOURORBIT">     0</i>
   <i name="AEXX">      0.00000000</i>
   <i name="HFALPHA">      0.00000000</i>
   <i name="MCALPHA">      0.00000000</i>
   <i name="ALDAX">      1.00000000</i>
   <i name="AGGAX">      1.00000000</i>
   <i name="ALDAC">      1.00000000</i>
   <i name="AGGAC">      1.00000000</i>
   <i type="int" name="NKREDX">     1</i>
   <i type="int" name="NKREDY">     1</i>
   <i type="int" name="NKREDZ">     1</i>
   <i type="logical" name="SHIFTRED"> F  </i>
   <i type="logical" name="ODDONLY"> F  </i>
   <i type="logical" name="EVENONLY"> F  </i>
   <i type="int" name="LMAXFOCK">     0</i>
   <i type="int" name="NMAXFOCKAE">     0</i>
   <i type="logical" name="LFOCKAEDFT"> F  </i>
   <i name="HFSCREEN">      0.00000000</i>
   <i name="HFSCREENC">      0.00000000</i>
   <i type="int" name="NBANDSGWLOW">     0</i>
  </separator>
  <separator name="vdW DFT" >
   <i type="logical" name="LUSE_VDW"> F  </i>
   <i name="Zab_VDW">     -0.84910000</i>
   <i name="PARAM1">      0.12340000</i>
   <i name="PARAM2">      1.00000000</i>
   <i name="PARAM3">      0.00000000</i>
  </separator>
  <separator name="model GW" >
   <i type="int" name="MODEL_GW">     0</i>
   <i name="MODEL_EPS0">      7.85318622</i>
   <i name="MODEL_ALPHA">      1.00000000</i>
  </separator>
  <separator name="linear response parameters" >
   <i type="logical" name="LEPSILON"> F  </i>
   <i type="logical" name="LRPA"> F  </i>
   <i type="logical" name="LNABLA"> F  </i>
   <i type="logical" name="LVEL"> F  </i>
   <i type="int" name="KINTER">     0</i>
   <i name="CSHIFT">      0.10000000</i>
   <i name="OMEGAMAX">     -1.00000000</i>
   <i name="DEG_THRESHOLD">      0.00200000</i>
   <i name="RTIME">     -0.10000000</i>
   <i name="WPLASMAI">      0.00000000</i>
   <v name="DFIELD">      0.00000000      0.00000000      0.00000000</v>
   <v name="WPLASMA">      0.00000000      0.00000000      0.00000000      0.00000000      0.00000000      0.00000000      0.00000000      0.00000000      0.00000000</v>
  </separator>
  <separator name="orbital magnetization" >
   <i type="logical" name="NUCIND"> F  </i>
   <v name="MAGPOS">      0.00000000      0.00000000      0.00000000</v>
   <i type="logical" name="LNICSALL"> T  </i>
   <i type="logical" name="ORBITALMAG"> F  </i>
   <i type="logical" name="LMAGBLOCH"> F  </i>
   <i type="logical" name="LCHIMAG"> F  </i>
   <i type="logical" name="LGAUGE"> T  </i>
   <i type="int" name="MAGATOM">     0</i>
   <v name="MAGDIPOL">      0.00000000      0.00000000      0.00000000</v>
   <v name="AVECCONST">      0.00000000      0.00000000      0.00000000</v>
  </separator>
  <separator name="response functions" >
   <i type="logical" name="LADDER"> F  </i>
   <i type="logical" name="LRPAFORCE"> F  </i>
   <i type="logical" name="LFXC"> F  </i>
   <i type="logical" name="LHARTREE"> T  </i>
   <i type="int" name="IBSE">     0</i>
   <v type="int" name="KPOINT">    -1     0     0     0</v>
   <i type="logical" name="LTCTE"> F  </i>
   <i type="logical" name="LTETE"> F  </i>
   <i type="logical" name="LTRIPLET"> F  </i>
   <i type="logical" name="LFXCEPS"> F  </i>
   <i type="logical" name="LFXHEG"> F  </i>
   <i type="int" name="NATURALO">     2</i>
   <i type="logical" name="L2ORDER"> F  </i>
   <i type="logical" name="LMP2LT"> F  </i>
   <i type="logical" name="LUSEW"> F  </i>
   <i name="ENCUTGW">     -2.00000000</i>
   <i name="ENCUTGWSOFT">     -2.00000000</i>
   <i name="ENCUTLF">     -1.00000000</i>
   <i type="int" name="LMAXMP2">    -1</i>
   <i name="SCISSOR">      0.00000000</i>
   <i type="int" name="NOMEGA">     0</i>
   <i type="int" name="NOMEGAR">     0</i>
   <i type="int" name="NBANDSGW">    -1</i>
   <i type="int" name="NBANDSO">    -1</i>
   <i type="int" name="NBANDSV">    -1</i>
   <i type="int" name="NELM">     1</i>
   <i type="int" name="NELMHF">     1</i>
   <i type="int" name="DIM">     3</i>
   <i type="int" name="ANTIRES">     0</i>
   <i name="OMEGAMAX">    -30.00000000</i>
   <i name="OMEGAMIN">    -30.00000000</i>
   <i name="OMEGATL">   -200.00000000</i>
   <i type="int" name="OMEGAGRID">   140</i>
   <i name="CSHIFT">     -0.10000000</i>
   <i type="logical" name="SELFENERGY"> F  </i>
   <i type="logical" name="LSPECTRAL"> F  </i>
   <i type="logical" name="LSPECTRALGW"> F  </i>
   <i type="logical" name="LSINGLES"> F  </i>
   <i type="logical" name="LFERMIGW"> F  </i>
   <i type="logical" name="ODDONLYGW"> F  </i>
   <i type="logical" name="EVENONLYGW"> F  </i>
   <i type="int" name="NKREDLFX">     1</i>
   <i type="int" name="NKREDLFY">     1</i>
   <i type="int" name="NKREDLFZ">     1</i>
   <i type="int" name="MAXMEM">  2800</i>
   <i type="int" name="TELESCOPE">     0</i>
   <i type="int" name="TAUPAR">     1</i>
   <i type="int" name="OMEGAPAR">    -1</i>
   <i name="LAMBDA">      1.00000000</i>
  </separator>
  <separator name="External order field" >
   <i name="OFIELD_KAPPA">      0.00000000</i>
   <v name="OFIELD_K">      0.00000000      0.00000000      0.00000000</v>
   <i name="OFIELD_Q6_NEAR">      0.00000000</i>
   <i name="OFIELD_Q6_FAR">      0.00000000</i>
   <i name="OFIELD_A">      0.00000000</i>
  </separator>
 </parameters>
 <atominfo>
  <atoms>      20 </atoms>
  <types>       4 </types>
  <array name="atoms" >
   <dimension dim="1">ion</dimension>
   <field type="string">element</field>
   <field type="int">atomtype</field>
   <set>
    <rc><c>Nb</c><c>   1</c></rc>
    <rc><c>Nb</c><c>   1</c></rc>
    <rc><c>Nb</c><c>   1</c></rc>
    <rc><c>O </c><c>   2</c></rc>
    <rc><c>O </c><c>   2</c></rc>
    <rc><c>O </c><c>   2</c></rc>
    <rc><c>O </c><c>   2</c></rc>
    <rc><c>O </c><c>   2</c></rc>
    <rc><c>O </c><c>   2</c></rc>
    <rc><c>O </c><c>   2</c></rc>
    <rc><c>O </c><c>   2</c></rc>
    <rc><c>O </c><c>   2</c></rc>
    <rc><c>O </c><c>   2</c></rc>
    <rc><c>O </c><c>   2</c></rc>
    <rc><c>O </c><c>   2</c></rc>
    <rc><c>Sr</c><c>   3</c></rc>
    <rc><c>Sr</c><c>   3</c></rc>
    <rc><c>Sr</c><c>   3</c></rc>
    <rc><c>Sr</c><c>   3</c></rc>
    <rc><c>Ti</c><c>   4</c></rc>
   </set>
  </array>
  <array name="atomtypes" >
   <dimension dim="1">type</dimension>
   <field type="int">atomspertype</field>
   <field type="string">element</field>
   <field>mass</field>
   <field>valence</field>
   <field type="string">pseudopotential</field>
   <set>
    <rc><c>   3</c><c>Nb</c><c>     92.91000000</c><c>     13.00000000</c><c>  PAW_PBE Nb_sv 25May2007               </c></rc>
    <rc><c>  12</c><c>O </c><c>     16.00000000</c><c>      6.00000000</c><c>  PAW_PBE O 08Apr2002                   </c></rc>
    <rc><c>   4</c><c>Sr</c><c>     87.62000000</c><c>     10.00000000</c><c>  PAW_PBE Sr_sv 07Sep2000               </c></rc>
    <rc><c>   1</c><c>Ti</c><c>     47.88000000</c><c>     12.00000000</c><c>  PAW_PBE Ti_sv 26Sep2005               </c></rc>
   </set>
  </array>
 </atominfo>
 <structure name="initialpos" >
  <crystal>
   <varray name="basis" >
    <v>       4.02984383       4.02984383      -4.02984383 </v>
    <v>       4.02984383      -4.02984383       4.02984383 </v>
    <v>      -4.02984383      -4.02984383      -4.02984383 </v>
   </varray>
   <i name="volume">    261.77287396 </i>
   <varray name="rec_basis" >
    <v>       0.12407429       0.00000000      -0.12407429 </v>
    <v>       0.12407429      -0.12407429       0.00000000 </v>
    <v>       0.00000000      -0.12407429      -0.12407429 </v>
   </varray>
  </crystal>
  <varray name="positions" >
   <v>       0.50000000       0.00000000       0.00000000 </v>
   <v>       0.00000000       0.50000000       0.00000000 </v>
   <v>       0.00000000       0.00000000       0.50000000 </v>
   <v>       0.75000000       0.25000000       0.00000000 </v>
   <v>       0.50000000       0.74839170       0.74839170 </v>
   <v>       0.25000000       0.00000000       0.75000000 </v>
   <v>       0.25000000       0.75000000       0.00000000 </v>
   <v>       0.00000000       0.25000000       0.75000000 </v>
   <v>       0.74839170       0.50000000       0.74839170 </v>
   <v>       0.25160830       0.25160830       0.50000000 </v>
   <v>       0.00000000       0.75000000       0.25000000 </v>
   <v>       0.75000000       0.00000000       0.25000000 </v>
   <v>       0.74839170       0.74839170       0.50000000 </v>
   <v>       0.50000000       0.25160830       0.25160830 </v>
   <v>       0.25160830       0.50000000       0.25160830 </v>
   <v>       0.50000000       0.00000000       0.50000000 </v>
   <v>       0.00000000       0.50000000       0.50000000 </v>
   <v>       0.00000000       0.00000000       0.00000000 </v>
   <v>       0.50000000       0.50000000       0.00000000 </v>
   <v>       0.50000000       0.50000000       0.50000000 </v>
  </varray>
 </structure>
 <calculation>
  <scstep>
   <time name="dav">    1.03    1.03</time>
   <time name="total">    1.09    1.11</time>
   <energy>
    <i name="alphaZ">    905.75915842 </i>
    <i name="ewald"> -11690.91918742 </i>
    <i name="hartreedc">  -3283.76405206 </i>
    <i name="XCdc">    709.74782941 </i>
    <i name="pawpsdc">  11649.24269774 </i>
    <i name="pawaedc"> -11538.10858916 </i>
    <i name="eentropy">      0.00000000 </i>
    <i name="bandstr">    170.27965118 </i>
    <i name="atom">  14814.03798863 </i>
    <i name="e_fr_energy">   1736.27549674 </i>
    <i name="e_wo_entrp">   1736.27549674 </i>
    <i name="e_0_energy">   1736.27549674 </i>
   </energy>
  </scstep>
  <scstep>
   <time name="dav">    1.18    1.18</time>
   <time name="total">    1.19    1.20</time>
   <energy>
    <i name="e_fr_energy">     17.74306435 </i>
    <i name="e_wo_entrp">     17.74306435 </i>
    <i name="e_0_energy">     17.74306435 </i>
   </energy>
  </scstep>
  <scstep>
   <time name="dav">    1.33    1.33</time>
   <time name="total">    1.34    1.35</time>
   <energy>
    <i name="e_fr_energy">   -179.75966352 </i>
    <i name="e_wo_entrp">   -179.75966352 </i>
    <i name="e_0_energy">   -179.75966352 </i>
   </energy>
  </scstep>
  <scstep>
   <time name="dav">    1.50    1.51</time>
   <time name="total">    1.52    1.52</time>
   <energy>
    <i name="e_fr_energy">   -192.83682718 </i>
    <i name="e_wo_entrp">   -192.83682718 </i>
    <i name="e_0_energy">   -192.83682718 </i>
   </energy>
  </scstep>
  <scstep>
   <time name="dav">    1.53    1.53</time>
   <time name="total">    1.63    1.63</time>
   <energy>
    <i name="e_fr_energy">   -193.62388666 </i>
    <i name="e_wo_entrp">   -193.62388666 </i>
    <i name="e_0_energy">   -193.62388666 </i>
   </energy>
  </scstep>
  <scstep>
   <time name="dav">    1.35    1.35</time>
   <time name="total">    1.48    1.49</time>
   <energy>
    <i name="e_fr_energy">   -163.84075500 </i>
    <i name="e_wo_entrp">   -163.84075500 </i>
    <i name="e_0_energy">   -163.84075500 </i>
   </energy>
  </scstep>
  <scstep>
   <time name="dav">    1.34    1.35</time>
   <time name="total">    1.48    1.48</time>
   <energy>
    <i name="e_fr_energy">   -165.10536034 </i>
    <i name="e_wo_entrp">   -165.10536034 </i>
    <i name="e_0_energy">   -165.10536034 </i>
   </energy>
  </scstep>
  <scstep>
   <time name="dav">    1.45    1.45</time>
   <time name="total">    1.59    1.59</time>
   <energy>
    <i name="e_fr_energy">   -163.32321583 </i>
    <i name="e_wo_entrp">   -163.32321583 </i>
    <i name="e_0_energy">   -163.32321583 </i>
   </energy>
  </scstep>
  <scstep>
   <time name="dav">    1.41    1.42</time>
   <time name="total">    1.55    1.56</time>
   <energy>
    <i name="e_fr_energy">   -164.38849425 </i>
    <i name="e_wo_entrp">   -164.38849425 </i>
    <i name="e_0_energy">   -164.38849425 </i>
   </energy>
  </scstep>
  <scstep>
   <time name="dav">    1.32    1.33</time>
   <time name="total">    1.46    1.47</time>
   <energy>
    <i name="e_fr_energy">   -163.45348371 </i>
    <i name="e_wo_entrp">   -163.45348371 </i>
    <i name="e_0_energy">   -163.45348371 </i>
   </energy>
  </scstep>
  <scstep>
   <time name="dav">    1.36    1.37</time>
   <time name="total">    1.50    1.51</time>
   <energy>
    <i name="e_fr_energy">   -163.25285405 </i>
    <i name="e_wo_entrp">   -163.25285405 </i>
    <i name="e_0_energy">   -163.25285405 </i>
   </energy>
  </scstep>
  <scstep>
   <time name="dav">    1.33    1.33</time>
   <time name="total">    1.46    1.47</time>
   <energy>
    <i name="e_fr_energy">   -163.29322947 </i>
    <i name="e_wo_entrp">   -163.29322947 </i>
    <i name="e_0_energy">   -163.29322947 </i>
   </energy>
  </scstep>
  <scstep>
   <time name="dav">    1.32    1.32</time>
   <time name="total">    1.46    1.46</time>
   <energy>
    <i name="e_fr_energy">   -163.26290927 </i>
    <i name="e_wo_entrp">   -163.26290927 </i>
    <i name="e_0_energy">   -163.26290927 </i>
   </energy>
  </scstep>
  <scstep>
   <time name="dav">    1.55    1.56</time>
   <time name="total">    1.69    1.70</time>
   <energy>
    <i name="e_fr_energy">   -163.26216400 </i>
    <i name="e_wo_entrp">   -163.26216400 </i>
    <i name="e_0_energy">   -163.26216400 </i>
   </energy>
  </scstep>
  <scstep>
   <time name="dav">    1.41    1.41</time>
   <time name="total">    1.54    1.55</time>
   <energy>
    <i name="e_fr_energy">   -163.26168898 </i>
    <i name="e_wo_entrp">   -163.26168898 </i>
    <i name="e_0_energy">   -163.26168898 </i>
   </energy>
  </scstep>
  <scstep>
   <time name="dav">    1.48    1.48</time>
   <time name="total">    1.62    1.62</time>
   <energy>
    <i name="e_fr_energy">   -163.26168444 </i>
    <i name="e_wo_entrp">   -163.26168444 </i>
    <i name="e_0_energy">   -163.26168444 </i>
   </energy>
  </scstep>
  <scstep>
   <time name="dav">    1.12    1.13</time>
   <time name="total">    1.26    1.27</time>
   <energy>
    <i name="e_fr_energy">   -163.26174901 </i>
    <i name="e_wo_entrp">   -163.26174901 </i>
    <i name="e_0_energy">   -163.26174901 </i>
   </energy>
  </scstep>
  <scstep>
   <time name="dav">    1.00    1.01</time>
   <time name="total">    1.15    1.15</time>
   <energy>
    <i name="e_fr_energy">   -163.26169135 </i>
    <i name="e_wo_entrp">   -163.26169135 </i>
    <i name="e_0_energy">   -163.26169135 </i>
   </energy>
  </scstep>
  <scstep>
   <time name="dav">    0.83    0.83</time>
   <time name="total">    0.89    0.89</time>
   <energy>
    <i name="alphaZ">    905.75915842 </i>
    <i name="ewald"> -11690.91918742 </i>
    <i name="hartreedc">  -3337.33415379 </i>
    <i name="XCdc">    716.27519287 </i>
    <i name="pawpsdc">  17481.01947934 </i>
    <i name="pawaedc"> -17387.28117710 </i>
    <i name="eentropy">      0.00000000 </i>
    <i name="bandstr">  -1664.81899310 </i>
    <i name="atom">  14814.03798863 </i>
    <i name="e_fr_energy">   -163.26169216 </i>
    <i name="e_wo_entrp">   -163.26169216 </i>
    <i name="e_0_energy">   -163.26169216 </i>
   </energy>
  </scstep>
  <structure>
   <crystal>
    <varray name="basis" >
     <v>       4.02984383       4.02984383      -4.02984383 </v>
     <v>       4.02984383      -4.02984383       4.02984383 </v>
     <v>      -4.02984383      -4.02984383      -4.02984383 </v>
    </varray>
    <i name="volume">    261.77287396 </i>
    <varray name="rec_basis" >
     <v>       0.12407429       0.00000000      -0.12407429 </v>
     <v>       0.12407429      -0.12407429       0.00000000 </v>
     <v>       0.00000000      -0.12407429      -0.12407429 </v>
    </varray>
   </crystal>
   <varray name="positions" >
    <v>       0.50000000       0.00000000       0.00000000 </v>
    <v>       0.00000000       0.50000000       0.00000000 </v>
    <v>       0.00000000       0.00000000       0.50000000 </v>
    <v>       0.75000000       0.25000000       0.00000000 </v>
    <v>       0.50000000       0.74839170       0.74839170 </v>
    <v>       0.25000000       0.00000000       0.75000000 </v>
    <v>       0.25000000       0.75000000       0.00000000 </v>
    <v>       0.00000000       0.25000000       0.75000000 </v>
    <v>       0.74839170       0.50000000       0.74839170 </v>
    <v>       0.25160830       0.25160830       0.50000000 </v>
    <v>       0.00000000       0.75000000       0.25000000 </v>
    <v>       0.75000000       0.00000000       0.25000000 </v>
    <v>       0.74839170       0.74839170       0.50000000 </v>
    <v>       0.50000000       0.25160830       0.25160830 </v>
    <v>       0.25160830       0.50000000       0.25160830 </v>
    <v>       0.50000000       0.00000000       0.50000000 </v>
    <v>       0.00000000       0.50000000       0.50000000 </v>
    <v>       0.00000000       0.00000000       0.00000000 </v>
    <v>       0.50000000       0.50000000       0.00000000 </v>
    <v>       0.50000000       0.50000000       0.50000000 </v>
   </varray>
  </structure>
  <varray name="forces" >
   <v>       0.00000000      -0.00000000      -0.00000000 </v>
   <v>       0.00000000      -0.00000000      -0.00000000 </v>
   <v>       0.00000000      -0.00000000      -0.00000000 </v>
   <v>       0.00000000      -0.00000000      -0.00000000 </v>
   <v>       0.00000000      -0.11691074      -0.00000000 </v>
   <v>       0.00000000      -0.00000000      -0.00000000 </v>
   <v>       0.00000000      -0.00000000      -0.00000000 </v>
   <v>       0.00000000      -0.00000000      -0.00000000 </v>
   <v>       0.00000000      -0.00000000      -0.11691074 </v>
   <v>      -0.11691074      -0.00000000      -0.00000000 </v>
   <v>       0.00000000      -0.00000000      -0.00000000 </v>
   <v>       0.00000000      -0.00000000      -0.00000000 </v>
   <v>       0.11691074      -0.00000000      -0.00000000 </v>
   <v>       0.00000000       0.11691074      -0.00000000 </v>
   <v>       0.00000000      -0.00000000       0.11691074 </v>
   <v>       0.00000000      -0.00000000      -0.00000000 </v>
   <v>       0.00000000      -0.00000000      -0.00000000 </v>
   <v>       0.00000000      -0.00000000      -0.00000000 </v>
   <v>       0.00000000      -0.00000000      -0.00000000 </v>
   <v>       0.00000000      -0.00000000      -0.00000000 </v>
  </varray>
  <varray name="stress" >
   <v>       3.37165701       0.00000000      -0.00000000 </v>
   <v>      -0.00000000       3.37165701       0.00000000 </v>
   <v>       0.00000000       0.00000000       3.37165701 </v>
  </varray>
  <energy>
   <i name="e_fr_energy">   -163.26169216 </i>
   <i name="e_wo_entrp">   -163.26169216 </i>
   <i name="e_0_energy">      0.00000000 </i>
  </energy>
  <time name="totalsc">   29.35   30.22</time>
  <eigenvalues>
   <array>
    <dimension dim="1">band</dimension>
    <dimension dim="2">kpoint</dimension>
    <dimension dim="3">spin</dimension>
    <field>eigene</field>
    <field>occ</field>
    <set>
     <set comment="spin 1">
      <set comment="kpoint 1">
       <r>  -51.0864    1.0000 </r>
       <r>  -49.5263    1.0000 </r>
       <r>  -49.5226    1.0000 </r>
       <r>  -49.5226    1.0000 </r>
       <r>  -28.9594    1.0000 </r>
       <r>  -28.9331    1.0000 </r>
       <r>  -28.9331    1.0000 </r>
       <r>  -28.9331    1.0000 </r>
       <r>  -27.3790    1.0000 </r>
       <r>  -27.3790    1.0000 </r>
       <r>  -27.3790    1.0000 </r>
       <r>  -25.8501    1.0000 </r>
       <r>  -25.8501    1.0000 </r>
       <r>  -25.8501    1.0000 </r>
       <r>  -25.7184    1.0000 </r>
       <r>  -25.7184    1.0000 </r>
       <r>  -25.7184    1.0000 </r>
       <r>  -25.6933    1.0000 </r>
       <r>  -25.6933    1.0000 </r>
       <r>  -25.6933    1.0000 </r>
       <r>  -13.1295    1.0000 </r>
       <r>  -12.8140    1.0000 </r>
       <r>  -12.8140    1.0000 </r>
       <r>  -12.4967    1.0000 </r>
       <r>  -12.2419    1.0000 </r>
       <r>  -12.2419    1.0000 </r>
       <r>  -12.2419    1.0000 </r>
       <r>  -12.1077    1.0000 </r>
       <r>  -12.1077    1.0000 </r>
       <r>  -12.0111    1.0000 </r>
       <r>  -12.0111    1.0000 </r>
       <r>  -12.0111    1.0000 </r>
       <r>  -10.9294    1.0000 </r>
       <r>  -10.9294    1.0000 </r>
       <r>  -10.9294    1.0000 </r>
       <r>  -10.8833    1.0000 </r>
       <r>  -10.8833    1.0000 </r>
       <r>  -10.8173    1.0000 </r>
       <r>  -10.5932    1.0000 </r>
       <r>  -10.5932    1.0000 </r>
       <r>  -10.5932    1.0000 </r>
       <r>  -10.4326    1.0000 </r>
       <r>  -10.4326    1.0000 </r>
       <r>  -10.4326    1.0000 </r>
       <r>   -0.8435    1.0000 </r>
       <r>   -0.6796    1.0000 </r>
       <r>   -0.6796    1.0000 </r>
       <r>   -0.4739    1.0000 </r>
       <r>   -0.4739    1.0000 </r>
       <r>   -0.4739    1.0000 </r>
       <r>   -0.1636    1.0000 </r>
       <r>    0.3074    1.0000 </r>
       <r>    0.3074    1.0000 </r>
       <r>    1.1820    1.0000 </r>
       <r>    1.1820    1.0000 </r>
       <r>    1.1820    1.0000 </r>
       <r>    1.4958    1.0000 </r>
       <r>    1.4958    1.0000 </r>
       <r>    1.4958    1.0000 </r>
       <r>    1.7318    1.0000 </r>
       <r>    1.7318    1.0000 </r>
       <r>    1.7318    1.0000 </r>
       <r>    2.4102    1.0000 </r>
       <r>    2.4102    1.0000 </r>
       <r>    2.4102    1.0000 </r>
       <r>    2.5042    1.0000 </r>
       <r>    2.5042    1.0000 </r>
       <r>    2.5042    1.0000 </r>
       <r>    2.7316    1.0000 </r>
       <r>    2.7316    1.0000 </r>
       <r>    2.7316    1.0000 </r>
       <r>    3.0784    1.0000 </r>
       <r>    3.0784    1.0000 </r>
       <r>    3.0784    1.0000 </r>
       <r>    3.6864    1.0000 </r>
       <r>    3.6864    1.0000 </r>
       <r>    3.6864    1.0000 </r>
       <r>    3.9618    1.0000 </r>
       <r>    3.9618    1.0000 </r>
       <r>    3.9618    1.0000 </r>
       <r>    6.3732    1.0000 </r>
       <r>    6.3732    1.0048 </r>
       <r>    6.3732    1.0076 </r>
       <r>    8.6897    0.0000 </r>
       <r>    8.6897    0.0000 </r>
       <r>    8.6897    0.0000 </r>
       <r>    8.8286    0.0000 </r>
       <r>    8.8286    0.0000 </r>
       <r>    8.8286    0.0000 </r>
       <r>    9.3556    0.0000 </r>
       <r>    9.3556    0.0000 </r>
       <r>    9.3995    0.0000 </r>
       <r>    9.5320    0.0000 </r>
       <r>    9.5320    0.0000 </r>
       <r>    9.5320    0.0000 </r>
       <r>    9.7412    0.0000 </r>
       <r>    9.7412    0.0000 </r>
       <r>   10.6747    0.0000 </r>
       <r>   10.6747    0.0000 </r>
       <r>   10.9822    0.0000 </r>
      </set>
      <set comment="kpoint 2">
       <r>  -51.0864    1.0000 </r>
       <r>  -49.5260    1.0000 </r>
       <r>  -49.5229    1.0000 </r>
       <r>  -49.5226    1.0000 </r>
       <r>  -28.9574    1.0000 </r>
       <r>  -28.9362    1.0000 </r>
       <r>  -28.9335    1.0000 </r>
       <r>  -28.9335    1.0000 </r>
       <r>  -27.3788    1.0000 </r>
       <r>  -27.3787    1.0000 </r>
       <r>  -27.3783    1.0000 </r>
       <r>  -25.8493    1.0000 </r>
       <r>  -25.8354    1.0000 </r>
       <r>  -25.8348    1.0000 </r>
       <r>  -25.7194    1.0000 </r>
       <r>  -25.7187    1.0000 </r>
       <r>  -25.7179    1.0000 </r>
       <r>  -25.7079    1.0000 </r>
       <r>  -25.7077    1.0000 </r>
       <r>  -25.6935    1.0000 </r>
       <r>  -13.1215    1.0000 </r>
       <r>  -12.8369    1.0000 </r>
       <r>  -12.7755    1.0000 </r>
       <r>  -12.5213    1.0000 </r>
       <r>  -12.3201    1.0000 </r>
       <r>  -12.3032    1.0000 </r>
       <r>  -12.1865    1.0000 </r>
       <r>  -12.1759    1.0000 </r>
       <r>  -12.0781    1.0000 </r>
       <r>  -11.9481    1.0000 </r>
       <r>  -11.9346    1.0000 </r>
       <r>  -11.8774    1.0000 </r>
       <r>  -10.9251    1.0000 </r>
       <r>  -10.9177    1.0000 </r>
       <r>  -10.9009    1.0000 </r>
       <r>  -10.8990    1.0000 </r>
       <r>  -10.8470    1.0000 </r>
       <r>  -10.8388    1.0000 </r>
       <r>  -10.6465    1.0000 </r>
       <r>  -10.6420    1.0000 </r>
       <r>  -10.6236    1.0000 </r>
       <r>  -10.4939    1.0000 </r>
       <r>  -10.4862    1.0000 </r>
       <r>  -10.4758    1.0000 </r>
       <r>   -0.7566    1.0000 </r>
       <r>   -0.4994    1.0000 </r>
       <r>   -0.4250    1.0000 </r>
       <r>   -0.3358    1.0000 </r>
       <r>   -0.2910    1.0000 </r>
       <r>   -0.2751    1.0000 </r>
       <r>   -0.0223    1.0000 </r>
       <r>    0.3870    1.0000 </r>
       <r>    0.4655    1.0000 </r>
       <r>    1.0678    1.0000 </r>
       <r>    1.0959    1.0000 </r>
       <r>    1.1016    1.0000 </r>
       <r>    1.3015    1.0000 </r>
       <r>    1.4600    1.0000 </r>
       <r>    1.4927    1.0000 </r>
       <r>    1.5283    1.0000 </r>
       <r>    1.6582    1.0000 </r>
       <r>    1.7385    1.0000 </r>
       <r>    2.3070    1.0000 </r>
       <r>    2.3720    1.0000 </r>
       <r>    2.3909    1.0000 </r>
       <r>    2.4568    1.0000 </r>
       <r>    2.5187    1.0000 </r>
       <r>    2.5513    1.0000 </r>
       <r>    2.6713    1.0000 </r>
       <r>    2.6742    1.0000 </r>
       <r>    2.7926    1.0000 </r>
       <r>    2.8815    1.0000 </r>
       <r>    2.9492    1.0000 </r>
       <r>    3.1032    1.0000 </r>
       <r>    3.3002    1.0000 </r>
       <r>    3.4344    1.0000 </r>
       <r>    3.5780    1.0000 </r>
       <r>    3.8327    1.0000 </r>
       <r>    3.8883    1.0000 </r>
       <r>    3.9063    1.0000 </r>
       <r>    6.6139    1.0066 </r>
       <r>    6.6841    1.2321 </r>
       <r>    6.8258    1.1195 </r>
       <r>    8.5328    0.0000 </r>
       <r>    8.5674    0.0000 </r>
       <r>    8.5828    0.0000 </r>
       <r>    8.6897    0.0000 </r>
       <r>    8.8284    0.0000 </r>
       <r>    8.8296    0.0000 </r>
       <r>    9.2516    0.0000 </r>
       <r>    9.4224    0.0000 </r>
       <r>    9.4324    0.0000 </r>
       <r>    9.6545    0.0000 </r>
       <r>    9.6604    0.0000 </r>
       <r>    9.7732    0.0000 </r>
       <r>    9.9315    0.0000 </r>
       <r>   10.1633    0.0000 </r>
       <r>   10.7873    0.0000 </r>
       <r>   10.9801    0.0000 </r>
       <r>   11.1535    0.0000 </r>
      </set>
      <set comment="kpoint 3">
       <r>  -51.0864    1.0000 </r>
       <r>  -49.5253    1.0000 </r>
       <r>  -49.5237    1.0000 </r>
       <r>  -49.5226    1.0000 </r>
       <r>  -28.9517    1.0000 </r>
       <r>  -28.9436    1.0000 </r>
       <r>  -28.9342    1.0000 </r>
       <r>  -28.9342    1.0000 </r>
       <r>  -27.3784    1.0000 </r>
       <r>  -27.3782    1.0000 </r>
       <r>  -27.3770    1.0000 </r>
       <r>  -25.8480    1.0000 </r>
       <r>  -25.7969    1.0000 </r>
       <r>  -25.7953    1.0000 </r>
       <r>  -25.7488    1.0000 </r>
       <r>  -25.7471    1.0000 </r>
       <r>  -25.7185    1.0000 </r>
       <r>  -25.7179    1.0000 </r>
       <r>  -25.7169    1.0000 </r>
       <r>  -25.6938    1.0000 </r>
       <r>  -13.1367    1.0000 </r>
       <r>  -12.8422    1.0000 </r>
       <r>  -12.7033    1.0000 </r>
       <r>  -12.5493    1.0000 </r>
       <r>  -12.3831    1.0000 </r>
       <r>  -12.3777    1.0000 </r>
       <r>  -12.2325    1.0000 </r>
       <r>  -12.0807    1.0000 </r>
       <r>  -12.0182    1.0000 </r>
       <r>  -11.9023    1.0000 </r>
       <r>  -11.8229    1.0000 </r>
       <r>  -11.7436    1.0000 </r>
       <r>  -11.0133    1.0000 </r>
       <r>  -10.9764    1.0000 </r>
       <r>  -10.9072    1.0000 </r>
       <r>  -10.8768    1.0000 </r>
       <r>  -10.8151    1.0000 </r>
       <r>  -10.7273    1.0000 </r>
       <r>  -10.7082    1.0000 </r>
       <r>  -10.7075    1.0000 </r>
       <r>  -10.6720    1.0000 </r>
       <r>  -10.6060    1.0000 </r>
       <r>  -10.5763    1.0000 </r>
       <r>  -10.5501    1.0000 </r>
       <r>   -0.7307    1.0000 </r>
       <r>   -0.0539    1.0000 </r>
       <r>    0.0453    1.0000 </r>
       <r>    0.1612    1.0000 </r>
       <r>    0.1782    1.0000 </r>
       <r>    0.2361    1.0000 </r>
       <r>    0.3290    1.0000 </r>
       <r>    0.6906    1.0000 </r>
       <r>    0.7321    1.0000 </r>
       <r>    0.7661    1.0000 </r>
       <r>    0.8635    1.0000 </r>
       <r>    0.8884    1.0000 </r>
       <r>    0.9298    1.0000 </r>
       <r>    1.1114    1.0000 </r>
       <r>    1.3264    1.0000 </r>
       <r>    1.4922    1.0000 </r>
       <r>    1.7132    1.0000 </r>
       <r>    1.7149    1.0000 </r>
       <r>    1.7467    1.0000 </r>
       <r>    1.7570    1.0000 </r>
       <r>    1.7808    1.0000 </r>
       <r>    2.2394    1.0000 </r>
       <r>    2.2481    1.0000 </r>
       <r>    2.4729    1.0000 </r>
       <r>    2.7193    1.0000 </r>
       <r>    2.9245    1.0000 </r>
       <r>    2.9297    1.0000 </r>
       <r>    2.9995    1.0000 </r>
       <r>    3.0188    1.0000 </r>
       <r>    3.1322    1.0000 </r>
       <r>    3.2077    1.0000 </r>
       <r>    3.3216    1.0000 </r>
       <r>    3.3931    1.0000 </r>
       <r>    3.5554    1.0000 </r>
       <r>    3.6358    1.0000 </r>
       <r>    3.7348    1.0000 </r>
       <r>    7.2155    0.8594 </r>
       <r>    7.3644    0.1237 </r>
       <r>    7.6718   -0.0212 </r>
       <r>    7.9681    0.0000 </r>
       <r>    8.0853    0.0000 </r>
       <r>    8.3849    0.0000 </r>
       <r>    8.4342    0.0000 </r>
       <r>    8.5394    0.0000 </r>
       <r>    8.9277    0.0000 </r>
       <r>    8.9568    0.0000 </r>
       <r>    9.1844    0.0000 </r>
       <r>    9.2328    0.0000 </r>
       <r>   10.0574    0.0000 </r>
       <r>   10.4064    0.0000 </r>
       <r>   10.4697    0.0000 </r>
       <r>   10.6321    0.0000 </r>
       <r>   10.9320    0.0000 </r>
       <r>   11.0335    0.0000 </r>
       <r>   11.2229    0.0000 </r>
       <r>   11.5903    0.0000 </r>
      </set>
      <set comment="kpoint 4">
       <r>  -51.0864    1.0000 </r>
       <r>  -49.5255    1.0000 </r>
       <r>  -49.5235    1.0000 </r>
       <r>  -49.5226    1.0000 </r>
       <r>  -28.9536    1.0000 </r>
       <r>  -28.9388    1.0000 </r>
       <r>  -28.9388    1.0000 </r>
       <r>  -28.9319    1.0000 </r>
       <r>  -27.3784    1.0000 </r>
       <r>  -27.3782    1.0000 </r>
       <r>  -27.3774    1.0000 </r>
       <r>  -25.8342    1.0000 </r>
       <r>  -25.8338    1.0000 </r>
       <r>  -25.7966    1.0000 </r>
       <r>  -25.7478    1.0000 </r>
       <r>  -25.7185    1.0000 </r>
       <r>  -25.7182    1.0000 </r>
       <r>  -25.7175    1.0000 </r>
       <r>  -25.7086    1.0000 </r>
       <r>  -25.7083    1.0000 </r>
       <r>  -13.1107    1.0000 </r>
       <r>  -12.9067    1.0000 </r>
       <r>  -12.6934    1.0000 </r>
       <r>  -12.5266    1.0000 </r>
       <r>  -12.4390    1.0000 </r>
       <r>  -12.2450    1.0000 </r>
       <r>  -12.2006    1.0000 </r>
       <r>  -12.1216    1.0000 </r>
       <r>  -12.0910    1.0000 </r>
       <r>  -11.9266    1.0000 </r>
       <r>  -11.8209    1.0000 </r>
       <r>  -11.7739    1.0000 </r>
       <r>  -10.9799    1.0000 </r>
       <r>  -10.9341    1.0000 </r>
       <r>  -10.9049    1.0000 </r>
       <r>  -10.8818    1.0000 </r>
       <r>  -10.8627    1.0000 </r>
       <r>  -10.7554    1.0000 </r>
       <r>  -10.7229    1.0000 </r>
       <r>  -10.6947    1.0000 </r>
       <r>  -10.6501    1.0000 </r>
       <r>  -10.5806    1.0000 </r>
       <r>  -10.5711    1.0000 </r>
       <r>  -10.5056    1.0000 </r>
       <r>   -0.5316    1.0000 </r>
       <r>   -0.4138    1.0000 </r>
       <r>   -0.1316    1.0000 </r>
       <r>    0.0402    1.0000 </r>
       <r>    0.0404    1.0000 </r>
       <r>    0.2104    1.0000 </r>
       <r>    0.2137    1.0000 </r>
       <r>    0.4995    1.0000 </r>
       <r>    0.7099    1.0000 </r>
       <r>    0.8841    1.0000 </r>
       <r>    0.8871    1.0000 </r>
       <r>    1.0207    1.0000 </r>
       <r>    1.1000    1.0000 </r>
       <r>    1.3115    1.0000 </r>
       <r>    1.3563    1.0000 </r>
       <r>    1.3979    1.0000 </r>
       <r>    1.5394    1.0000 </r>
       <r>    1.6386    1.0000 </r>
       <r>    1.7489    1.0000 </r>
       <r>    2.1005    1.0000 </r>
       <r>    2.1618    1.0000 </r>
       <r>    2.3315    1.0000 </r>
       <r>    2.3689    1.0000 </r>
       <r>    2.6127    1.0000 </r>
       <r>    2.6369    1.0000 </r>
       <r>    2.7464    1.0000 </r>
       <r>    2.7689    1.0000 </r>
       <r>    2.9670    1.0000 </r>
       <r>    3.0606    1.0000 </r>
       <r>    3.0927    1.0000 </r>
       <r>    3.2471    1.0000 </r>
       <r>    3.2833    1.0000 </r>
       <r>    3.3691    1.0000 </r>
       <r>    3.6311    1.0000 </r>
       <r>    3.6585    1.0000 </r>
       <r>    3.8577    1.0000 </r>
       <r>    6.8949    1.0327 </r>
       <r>    7.3585    0.2503 </r>
       <r>    7.3635    0.2086 </r>
       <r>    8.1378    0.0000 </r>
       <r>    8.1400    0.0000 </r>
       <r>    8.5571    0.0000 </r>
       <r>    8.6533    0.0000 </r>
       <r>    8.7942    0.0000 </r>
       <r>    8.8146    0.0000 </r>
       <r>    8.9713    0.0000 </r>
       <r>    8.9721    0.0000 </r>
       <r>    9.3348    0.0000 </r>
       <r>   10.1518    0.0000 </r>
       <r>   10.1829    0.0000 </r>
       <r>   10.2053    0.0000 </r>
       <r>   10.4182    0.0000 </r>
       <r>   10.6687    0.0000 </r>
       <r>   11.1049    0.0000 </r>
       <r>   11.2737    0.0000 </r>
       <r>   11.4719    0.0000 </r>
      </set>
      <set comment="kpoint 5">
       <r>  -51.0864    1.0000 </r>
       <r>  -49.5249    1.0000 </r>
       <r>  -49.5241    1.0000 </r>
       <r>  -49.5226    1.0000 </r>
       <r>  -28.9467    1.0000 </r>
       <r>  -28.9467    1.0000 </r>
       <r>  -28.9400    1.0000 </r>
       <r>  -28.9314    1.0000 </r>
       <r>  -27.3781    1.0000 </r>
       <r>  -27.3778    1.0000 </r>
       <r>  -27.3770    1.0000 </r>
       <r>  -25.8333    1.0000 </r>
       <r>  -25.7955    1.0000 </r>
       <r>  -25.7951    1.0000 </r>
       <r>  -25.7484    1.0000 </r>
       <r>  -25.7481    1.0000 </r>
       <r>  -25.7184    1.0000 </r>
       <r>  -25.7179    1.0000 </r>
       <r>  -25.7170    1.0000 </r>
       <r>  -25.7090    1.0000 </r>
       <r>  -13.0982    1.0000 </r>
       <r>  -12.9513    1.0000 </r>
       <r>  -12.6914    1.0000 </r>
       <r>  -12.4934    1.0000 </r>
       <r>  -12.4417    1.0000 </r>
       <r>  -12.2639    1.0000 </r>
       <r>  -12.1856    1.0000 </r>
       <r>  -12.0983    1.0000 </r>
       <r>  -12.0380    1.0000 </r>
       <r>  -11.9583    1.0000 </r>
       <r>  -11.7621    1.0000 </r>
       <r>  -11.7181    1.0000 </r>
       <r>  -11.0123    1.0000 </r>
       <r>  -10.9664    1.0000 </r>
       <r>  -10.9060    1.0000 </r>
       <r>  -10.9004    1.0000 </r>
       <r>  -10.8504    1.0000 </r>
       <r>  -10.7692    1.0000 </r>
       <r>  -10.7653    1.0000 </r>
       <r>  -10.7113    1.0000 </r>
       <r>  -10.6314    1.0000 </r>
       <r>  -10.6271    1.0000 </r>
       <r>  -10.6122    1.0000 </r>
       <r>  -10.5217    1.0000 </r>
       <r>   -0.4739    1.0000 </r>
       <r>    0.0339    1.0000 </r>
       <r>    0.1601    1.0000 </r>
       <r>    0.1836    1.0000 </r>
       <r>    0.4282    1.0000 </r>
       <r>    0.4490    1.0000 </r>
       <r>    0.4594    1.0000 </r>
       <r>    0.5619    1.0000 </r>
       <r>    0.5797    1.0000 </r>
       <r>    0.8316    1.0000 </r>
       <r>    0.8915    1.0000 </r>
       <r>    0.9414    1.0000 </r>
       <r>    0.9789    1.0000 </r>
       <r>    1.0273    1.0000 </r>
       <r>    1.1832    1.0000 </r>
       <r>    1.3849    1.0000 </r>
       <r>    1.4774    1.0000 </r>
       <r>    1.5688    1.0000 </r>
       <r>    1.5749    1.0000 </r>
       <r>    1.7196    1.0000 </r>
       <r>    1.8696    1.0000 </r>
       <r>    1.9641    1.0000 </r>
       <r>    2.2991    1.0000 </r>
       <r>    2.4628    1.0000 </r>
       <r>    2.6991    1.0000 </r>
       <r>    2.9125    1.0000 </r>
       <r>    2.9164    1.0000 </r>
       <r>    3.0068    1.0000 </r>
       <r>    3.0629    1.0000 </r>
       <r>    3.2155    1.0000 </r>
       <r>    3.2187    1.0000 </r>
       <r>    3.3067    1.0000 </r>
       <r>    3.3305    1.0000 </r>
       <r>    3.4897    1.0000 </r>
       <r>    3.5131    1.0000 </r>
       <r>    3.7595    1.0000 </r>
       <r>    7.4498    0.4012 </r>
       <r>    7.4823    0.0071 </r>
       <r>    7.8864   -0.0300 </r>
       <r>    8.0493    0.0000 </r>
       <r>    8.0692    0.0000 </r>
       <r>    8.2101    0.0000 </r>
       <r>    8.2107    0.0000 </r>
       <r>    8.7127    0.0000 </r>
       <r>    8.7269    0.0000 </r>
       <r>    8.7525    0.0000 </r>
       <r>    9.0527    0.0000 </r>
       <r>    9.1031    0.0000 </r>
       <r>   10.3807    0.0000 </r>
       <r>   10.8755    0.0000 </r>
       <r>   10.9326    0.0000 </r>
       <r>   10.9392    0.0000 </r>
       <r>   10.9889    0.0000 </r>
       <r>   11.0479    0.0000 </r>
       <r>   11.1570    0.0000 </r>
       <r>   11.3457    0.0000 </r>
      </set>
      <set comment="kpoint 6">
       <r>  -51.0864    1.0000 </r>
       <r>  -49.5246    1.0000 </r>
       <r>  -49.5235    1.0000 </r>
       <r>  -49.5235    1.0000 </r>
       <r>  -28.9472    1.0000 </r>
       <r>  -28.9390    1.0000 </r>
       <r>  -28.9390    1.0000 </r>
       <r>  -28.9389    1.0000 </r>
       <r>  -27.3777    1.0000 </r>
       <r>  -27.3777    1.0000 </r>
       <r>  -27.3772    1.0000 </r>
       <r>  -25.7966    1.0000 </r>
       <r>  -25.7954    1.0000 </r>
       <r>  -25.7954    1.0000 </r>
       <r>  -25.7484    1.0000 </r>
       <r>  -25.7484    1.0000 </r>
       <r>  -25.7472    1.0000 </r>
       <r>  -25.7186    1.0000 </r>
       <r>  -25.7186    1.0000 </r>
       <r>  -25.7174    1.0000 </r>
       <r>  -12.9352    1.0000 </r>
       <r>  -12.7603    1.0000 </r>
       <r>  -12.7603    1.0000 </r>
       <r>  -12.4612    1.0000 </r>
       <r>  -12.3736    1.0000 </r>
       <r>  -12.3736    1.0000 </r>
       <r>  -12.3148    1.0000 </r>
       <r>  -12.1358    1.0000 </r>
       <r>  -12.1358    1.0000 </r>
       <r>  -12.0154    1.0000 </r>
       <r>  -11.7661    1.0000 </r>
       <r>  -11.7661    1.0000 </r>
       <r>  -10.9525    1.0000 </r>
       <r>  -10.9525    1.0000 </r>
       <r>  -10.8920    1.0000 </r>
       <r>  -10.8553    1.0000 </r>
       <r>  -10.8553    1.0000 </r>
       <r>  -10.8551    1.0000 </r>
       <r>  -10.7609    1.0000 </r>
       <r>  -10.7609    1.0000 </r>
       <r>  -10.6346    1.0000 </r>
       <r>  -10.5955    1.0000 </r>
       <r>  -10.5955    1.0000 </r>
       <r>  -10.5083    1.0000 </r>
       <r>    0.0848    1.0000 </r>
       <r>    0.1255    1.0000 </r>
       <r>    0.1837    1.0000 </r>
       <r>    0.1837    1.0000 </r>
       <r>    0.4209    1.0000 </r>
       <r>    0.4209    1.0000 </r>
       <r>    0.6129    1.0000 </r>
       <r>    0.7230    1.0000 </r>
       <r>    0.7230    1.0000 </r>
       <r>    0.7476    1.0000 </r>
       <r>    0.9072    1.0000 </r>
       <r>    0.9072    1.0000 </r>
       <r>    1.0362    1.0000 </r>
       <r>    1.0941    1.0000 </r>
       <r>    1.0941    1.0000 </r>
       <r>    1.2134    1.0000 </r>
       <r>    1.3316    1.0000 </r>
       <r>    1.3316    1.0000 </r>
       <r>    1.7145    1.0000 </r>
       <r>    1.7145    1.0000 </r>
       <r>    1.7197    1.0000 </r>
       <r>    1.8064    1.0000 </r>
       <r>    1.8064    1.0000 </r>
       <r>    2.0237    1.0000 </r>
       <r>    2.9135    1.0000 </r>
       <r>    2.9135    1.0000 </r>
       <r>    3.0427    1.0000 </r>
       <r>    3.1276    1.0000 </r>
       <r>    3.1376    1.0000 </r>
       <r>    3.1376    1.0000 </r>
       <r>    3.2174    1.0000 </r>
       <r>    3.2174    1.0000 </r>
       <r>    3.4359    1.0000 </r>
       <r>    3.4700    1.0000 </r>
       <r>    3.6405    1.0000 </r>
       <r>    3.6405    1.0000 </r>
       <r>    7.7267   -0.0277 </r>
       <r>    7.7719   -0.0148 </r>
       <r>    7.7719   -0.0088 </r>
       <r>    8.3027    0.0000 </r>
       <r>    8.3125    0.0000 </r>
       <r>    8.3125    0.0000 </r>
       <r>    8.3562    0.0000 </r>
       <r>    8.3562    0.0000 </r>
       <r>    8.3720    0.0000 </r>
       <r>    8.6206    0.0000 </r>
       <r>    8.6206    0.0000 </r>
       <r>    8.6307    0.0000 </r>
       <r>   10.8408    0.0000 </r>
       <r>   10.8408    0.0000 </r>
       <r>   10.8880    0.0000 </r>
       <r>   10.9484    0.0000 </r>
       <r>   10.9486    0.0000 </r>
       <r>   11.2908    0.0000 </r>
       <r>   11.4114    0.0000 </r>
       <r>   11.4603    0.0000 </r>
      </set>
      <set comment="kpoint 7">
       <r>  -51.0864    1.0000 </r>
       <r>  -49.5258    1.0000 </r>
       <r>  -49.5235    1.0000 </r>
       <r>  -49.5223    1.0000 </r>
       <r>  -28.9559    1.0000 </r>
       <r>  -28.9388    1.0000 </r>
       <r>  -28.9388    1.0000 </r>
       <r>  -28.9291    1.0000 </r>
       <r>  -27.3785    1.0000 </r>
       <r>  -27.3785    1.0000 </r>
       <r>  -27.3778    1.0000 </r>
       <r>  -25.8485    1.0000 </r>
       <r>  -25.8485    1.0000 </r>
       <r>  -25.7971    1.0000 </r>
       <r>  -25.7476    1.0000 </r>
       <r>  -25.7182    1.0000 </r>
       <r>  -25.7174    1.0000 </r>
       <r>  -25.7174    1.0000 </r>
       <r>  -25.6936    1.0000 </r>
       <r>  -25.6936    1.0000 </r>
       <r>  -13.1881    1.0000 </r>
       <r>  -12.9743    1.0000 </r>
       <r>  -12.7123    1.0000 </r>
       <r>  -12.4986    1.0000 </r>
       <r>  -12.4798    1.0000 </r>
       <r>  -12.1329    1.0000 </r>
       <r>  -12.1289    1.0000 </r>
       <r>  -12.1289    1.0000 </r>
       <r>  -12.0624    1.0000 </r>
       <r>  -11.8817    1.0000 </r>
       <r>  -11.8817    1.0000 </r>
       <r>  -11.8359    1.0000 </r>
       <r>  -10.9626    1.0000 </r>
       <r>  -10.9210    1.0000 </r>
       <r>  -10.9210    1.0000 </r>
       <r>  -10.8971    1.0000 </r>
       <r>  -10.8430    1.0000 </r>
       <r>  -10.7409    1.0000 </r>
       <r>  -10.7213    1.0000 </r>
       <r>  -10.7213    1.0000 </r>
       <r>  -10.5959    1.0000 </r>
       <r>  -10.5659    1.0000 </r>
       <r>  -10.5659    1.0000 </r>
       <r>  -10.4627    1.0000 </r>
       <r>   -0.7898    1.0000 </r>
       <r>   -0.6685    1.0000 </r>
       <r>   -0.2298    1.0000 </r>
       <r>   -0.0872    1.0000 </r>
       <r>   -0.0872    1.0000 </r>
       <r>   -0.0292    1.0000 </r>
       <r>    0.1659    1.0000 </r>
       <r>    0.3660    1.0000 </r>
       <r>    0.7841    1.0000 </r>
       <r>    0.8154    1.0000 </r>
       <r>    0.8154    1.0000 </r>
       <r>    1.1235    1.0000 </r>
       <r>    1.3176    1.0000 </r>
       <r>    1.4948    1.0000 </r>
       <r>    1.4948    1.0000 </r>
       <r>    1.6364    1.0000 </r>
       <r>    1.6686    1.0000 </r>
       <r>    1.7037    1.0000 </r>
       <r>    1.7037    1.0000 </r>
       <r>    2.2780    1.0000 </r>
       <r>    2.2780    1.0000 </r>
       <r>    2.3404    1.0000 </r>
       <r>    2.4348    1.0000 </r>
       <r>    2.5652    1.0000 </r>
       <r>    2.5652    1.0000 </r>
       <r>    2.8439    1.0000 </r>
       <r>    2.8439    1.0000 </r>
       <r>    2.8531    1.0000 </r>
       <r>    2.8753    1.0000 </r>
       <r>    3.2015    1.0000 </r>
       <r>    3.2015    1.0000 </r>
       <r>    3.5642    1.0000 </r>
       <r>    3.5642    1.0000 </r>
       <r>    3.6687    1.0000 </r>
       <r>    3.6687    1.0000 </r>
       <r>    3.9896    1.0000 </r>
       <r>    6.4570    1.0067 </r>
       <r>    7.2355    0.7435 </r>
       <r>    7.2355    0.5757 </r>
       <r>    8.0680    0.0000 </r>
       <r>    8.0680    0.0000 </r>
       <r>    8.6819    0.0000 </r>
       <r>    8.8150    0.0000 </r>
       <r>    8.9738    0.0000 </r>
       <r>    8.9738    0.0000 </r>
       <r>    9.1541    0.0000 </r>
       <r>    9.1541    0.0000 </r>
       <r>    9.6347    0.0000 </r>
       <r>    9.7357    0.0000 </r>
       <r>    9.8696    0.0000 </r>
       <r>    9.9365    0.0000 </r>
       <r>   10.1554    0.0000 </r>
       <r>   10.4745    0.0000 </r>
       <r>   10.7321    0.0000 </r>
       <r>   11.0070    0.0000 </r>
       <r>   11.3078    0.0000 </r>
      </set>
      <set comment="kpoint 8">
       <r>  -51.0864    1.0000 </r>
       <r>  -49.5253    1.0000 </r>
       <r>  -49.5242    1.0000 </r>
       <r>  -49.5221    1.0000 </r>
       <r>  -28.9515    1.0000 </r>
       <r>  -28.9450    1.0000 </r>
       <r>  -28.9424    1.0000 </r>
       <r>  -28.9267    1.0000 </r>
       <r>  -27.3781    1.0000 </r>
       <r>  -27.3780    1.0000 </r>
       <r>  -27.3771    1.0000 </r>
       <r>  -25.8472    1.0000 </r>
       <r>  -25.8329    1.0000 </r>
       <r>  -25.7945    1.0000 </r>
       <r>  -25.7487    1.0000 </r>
       <r>  -25.7180    1.0000 </r>
       <r>  -25.7171    1.0000 </r>
       <r>  -25.7165    1.0000 </r>
       <r>  -25.7088    1.0000 </r>
       <r>  -25.6938    1.0000 </r>
       <r>  -13.2401    1.0000 </r>
       <r>  -13.1152    1.0000 </r>
       <r>  -12.8211    1.0000 </r>
       <r>  -12.5729    1.0000 </r>
       <r>  -12.2735    1.0000 </r>
       <r>  -12.1137    1.0000 </r>
       <r>  -12.1067    1.0000 </r>
       <r>  -12.0501    1.0000 </r>
       <r>  -12.0167    1.0000 </r>
       <r>  -11.8205    1.0000 </r>
       <r>  -11.7467    1.0000 </r>
       <r>  -11.6673    1.0000 </r>
       <r>  -11.0571    1.0000 </r>
       <r>  -10.9382    1.0000 </r>
       <r>  -10.9085    1.0000 </r>
       <r>  -10.8813    1.0000 </r>
       <r>  -10.8747    1.0000 </r>
       <r>  -10.8419    1.0000 </r>
       <r>  -10.8179    1.0000 </r>
       <r>  -10.7107    1.0000 </r>
       <r>  -10.6637    1.0000 </r>
       <r>  -10.6112    1.0000 </r>
       <r>  -10.5775    1.0000 </r>
       <r>  -10.4725    1.0000 </r>
       <r>   -0.7360    1.0000 </r>
       <r>   -0.4562    1.0000 </r>
       <r>    0.0186    1.0000 </r>
       <r>    0.0205    1.0000 </r>
       <r>    0.2947    1.0000 </r>
       <r>    0.3005    1.0000 </r>
       <r>    0.3309    1.0000 </r>
       <r>    0.4719    1.0000 </r>
       <r>    0.6252    1.0000 </r>
       <r>    0.6524    1.0000 </r>
       <r>    0.8726    1.0000 </r>
       <r>    1.0556    1.0000 </r>
       <r>    1.1736    1.0000 </r>
       <r>    1.2618    1.0000 </r>
       <r>    1.5314    1.0000 </r>
       <r>    1.5409    1.0000 </r>
       <r>    1.6096    1.0000 </r>
       <r>    1.7319    1.0000 </r>
       <r>    1.7390    1.0000 </r>
       <r>    1.8294    1.0000 </r>
       <r>    2.1409    1.0000 </r>
       <r>    2.1949    1.0000 </r>
       <r>    2.2644    1.0000 </r>
       <r>    2.4863    1.0000 </r>
       <r>    2.5825    1.0000 </r>
       <r>    2.6945    1.0000 </r>
       <r>    2.8767    1.0000 </r>
       <r>    2.9889    1.0000 </r>
       <r>    3.0166    1.0000 </r>
       <r>    3.2017    1.0000 </r>
       <r>    3.2227    1.0000 </r>
       <r>    3.2960    1.0000 </r>
       <r>    3.4183    1.0000 </r>
       <r>    3.6065    1.0000 </r>
       <r>    3.6493    1.0000 </r>
       <r>    3.9412    1.0000 </r>
       <r>    6.7720    1.0524 </r>
       <r>    7.3876    0.2269 </r>
       <r>    7.5411    0.0668 </r>
       <r>    7.9680    0.0000 </r>
       <r>    8.0027    0.0000 </r>
       <r>    8.5209    0.0000 </r>
       <r>    8.6576    0.0000 </r>
       <r>    8.7866    0.0000 </r>
       <r>    8.8693    0.0000 </r>
       <r>    9.1402    0.0000 </r>
       <r>    9.2939    0.0000 </r>
       <r>    9.5701    0.0000 </r>
       <r>    9.9158    0.0000 </r>
       <r>   10.4391    0.0000 </r>
       <r>   10.5305    0.0000 </r>
       <r>   10.5584    0.0000 </r>
       <r>   10.8386    0.0000 </r>
       <r>   11.0579    0.0000 </r>
       <r>   11.2169    0.0000 </r>
       <r>   11.4177    0.0000 </r>
      </set>
      <set comment="kpoint 9">
       <r>  -51.0864    1.0000 </r>
       <r>  -49.5249    1.0000 </r>
       <r>  -49.5249    1.0000 </r>
       <r>  -49.5219    1.0000 </r>
       <r>  -28.9474    1.0000 </r>
       <r>  -28.9474    1.0000 </r>
       <r>  -28.9474    1.0000 </r>
       <r>  -28.9249    1.0000 </r>
       <r>  -27.3780    1.0000 </r>
       <r>  -27.3774    1.0000 </r>
       <r>  -27.3774    1.0000 </r>
       <r>  -25.8323    1.0000 </r>
       <r>  -25.8321    1.0000 </r>
       <r>  -25.8321    1.0000 </r>
       <r>  -25.7169    1.0000 </r>
       <r>  -25.7169    1.0000 </r>
       <r>  -25.7164    1.0000 </r>
       <r>  -25.7091    1.0000 </r>
       <r>  -25.7091    1.0000 </r>
       <r>  -25.7089    1.0000 </r>
       <r>  -13.2512    1.0000 </r>
       <r>  -13.2512    1.0000 </r>
       <r>  -12.8989    1.0000 </r>
       <r>  -12.6214    1.0000 </r>
       <r>  -12.0990    1.0000 </r>
       <r>  -12.0990    1.0000 </r>
       <r>  -12.0933    1.0000 </r>
       <r>  -11.9915    1.0000 </r>
       <r>  -11.9915    1.0000 </r>
       <r>  -11.7615    1.0000 </r>
       <r>  -11.6252    1.0000 </r>
       <r>  -11.6252    1.0000 </r>
       <r>  -11.0297    1.0000 </r>
       <r>  -11.0297    1.0000 </r>
       <r>  -10.9430    1.0000 </r>
       <r>  -10.9065    1.0000 </r>
       <r>  -10.9065    1.0000 </r>
       <r>  -10.8798    1.0000 </r>
       <r>  -10.7975    1.0000 </r>
       <r>  -10.7975    1.0000 </r>
       <r>  -10.7476    1.0000 </r>
       <r>  -10.5516    1.0000 </r>
       <r>  -10.5516    1.0000 </r>
       <r>  -10.4493    1.0000 </r>
       <r>   -0.5192    1.0000 </r>
       <r>   -0.5192    1.0000 </r>
       <r>   -0.3507    1.0000 </r>
       <r>    0.0933    1.0000 </r>
       <r>    0.2803    1.0000 </r>
       <r>    0.3289    1.0000 </r>
       <r>    0.3289    1.0000 </r>
       <r>    0.4499    1.0000 </r>
       <r>    0.4499    1.0000 </r>
       <r>    0.9902    1.0000 </r>
       <r>    0.9902    1.0000 </r>
       <r>    1.0461    1.0000 </r>
       <r>    1.2380    1.0000 </r>
       <r>    1.3782    1.0000 </r>
       <r>    1.3782    1.0000 </r>
       <r>    1.6351    1.0000 </r>
       <r>    1.6351    1.0000 </r>
       <r>    1.7278    1.0000 </r>
       <r>    1.7327    1.0000 </r>
       <r>    1.7678    1.0000 </r>
       <r>    1.7678    1.0000 </r>
       <r>    2.4574    1.0000 </r>
       <r>    2.4574    1.0000 </r>
       <r>    2.4647    1.0000 </r>
       <r>    2.6378    1.0000 </r>
       <r>    2.7391    1.0000 </r>
       <r>    2.7391    1.0000 </r>
       <r>    2.9296    1.0000 </r>
       <r>    2.9296    1.0000 </r>
       <r>    3.0687    1.0000 </r>
       <r>    3.1544    1.0000 </r>
       <r>    3.2921    1.0000 </r>
       <r>    3.2921    1.0000 </r>
       <r>    3.8030    1.0000 </r>
       <r>    3.8030    1.0000 </r>
       <r>    3.9364    1.0000 </r>
       <r>    7.0228    1.0004 </r>
       <r>    7.0331    1.0787 </r>
       <r>    7.0331    0.7480 </r>
       <r>    8.5063    0.0000 </r>
       <r>    8.5075    0.0000 </r>
       <r>    8.5075    0.0000 </r>
       <r>    8.5845    0.0000 </r>
       <r>    8.5871    0.0000 </r>
       <r>    8.5871    0.0000 </r>
       <r>    9.3898    0.0000 </r>
       <r>    9.4706    0.0000 </r>
       <r>    9.4706    0.0000 </r>
       <r>   10.1190    0.0000 </r>
       <r>   10.1190    0.0000 </r>
       <r>   10.8210    0.0000 </r>
       <r>   10.9935    0.0000 </r>
       <r>   11.0087    0.0000 </r>
       <r>   11.0340    0.0000 </r>
       <r>   11.0865    0.0000 </r>
       <r>   11.1370    0.0000 </r>
      </set>
      <set comment="kpoint 10">
       <r>  -51.0864    1.0000 </r>
       <r>  -49.5252    1.0000 </r>
       <r>  -49.5249    1.0000 </r>
       <r>  -49.5215    1.0000 </r>
       <r>  -28.9504    1.0000 </r>
       <r>  -28.9479    1.0000 </r>
       <r>  -28.9479    1.0000 </r>
       <r>  -28.9225    1.0000 </r>
       <r>  -27.3777    1.0000 </r>
       <r>  -27.3777    1.0000 </r>
       <r>  -27.3774    1.0000 </r>
       <r>  -25.8460    1.0000 </r>
       <r>  -25.8460    1.0000 </r>
       <r>  -25.8315    1.0000 </r>
       <r>  -25.7164    1.0000 </r>
       <r>  -25.7159    1.0000 </r>
       <r>  -25.7159    1.0000 </r>
       <r>  -25.7091    1.0000 </r>
       <r>  -25.6938    1.0000 </r>
       <r>  -25.6938    1.0000 </r>
       <r>  -13.3646    1.0000 </r>
       <r>  -13.3283    1.0000 </r>
       <r>  -12.9910    1.0000 </r>
       <r>  -12.6673    1.0000 </r>
       <r>  -12.1156    1.0000 </r>
       <r>  -12.1105    1.0000 </r>
       <r>  -11.9394    1.0000 </r>
       <r>  -11.8862    1.0000 </r>
       <r>  -11.8862    1.0000 </r>
       <r>  -11.5774    1.0000 </r>
       <r>  -11.5774    1.0000 </r>
       <r>  -11.5533    1.0000 </r>
       <r>  -11.1010    1.0000 </r>
       <r>  -11.0328    1.0000 </r>
       <r>  -11.0328    1.0000 </r>
       <r>  -10.9193    1.0000 </r>
       <r>  -10.9099    1.0000 </r>
       <r>  -10.9099    1.0000 </r>
       <r>  -10.8687    1.0000 </r>
       <r>  -10.8268    1.0000 </r>
       <r>  -10.8268    1.0000 </r>
       <r>  -10.5140    1.0000 </r>
       <r>  -10.5066    1.0000 </r>
       <r>  -10.4056    1.0000 </r>
       <r>   -0.7770    1.0000 </r>
       <r>   -0.6852    1.0000 </r>
       <r>   -0.4384    1.0000 </r>
       <r>    0.0302    1.0000 </r>
       <r>    0.1701    1.0000 </r>
       <r>    0.2840    1.0000 </r>
       <r>    0.2840    1.0000 </r>
       <r>    0.3055    1.0000 </r>
       <r>    0.4291    1.0000 </r>
       <r>    1.0672    1.0000 </r>
       <r>    1.0672    1.0000 </r>
       <r>    1.5492    1.0000 </r>
       <r>    1.5736    1.0000 </r>
       <r>    1.5895    1.0000 </r>
       <r>    1.6173    1.0000 </r>
       <r>    1.6173    1.0000 </r>
       <r>    1.6943    1.0000 </r>
       <r>    1.6943    1.0000 </r>
       <r>    1.8779    1.0000 </r>
       <r>    1.8833    1.0000 </r>
       <r>    1.9297    1.0000 </r>
       <r>    1.9297    1.0000 </r>
       <r>    2.0837    1.0000 </r>
       <r>    2.0837    1.0000 </r>
       <r>    2.2991    1.0000 </r>
       <r>    2.6328    1.0000 </r>
       <r>    2.6328    1.0000 </r>
       <r>    3.0055    1.0000 </r>
       <r>    3.1834    1.0000 </r>
       <r>    3.1834    1.0000 </r>
       <r>    3.2994    1.0000 </r>
       <r>    3.5099    1.0000 </r>
       <r>    3.5099    1.0000 </r>
       <r>    3.9398    1.0000 </r>
       <r>    3.9398    1.0000 </r>
       <r>    4.0360    1.0000 </r>
       <r>    6.6038    1.0030 </r>
       <r>    6.8587    1.1492 </r>
       <r>    6.8587    1.0641 </r>
       <r>    8.5015    0.0000 </r>
       <r>    8.5015    0.0000 </r>
       <r>    8.6689    0.0000 </r>
       <r>    8.7592    0.0000 </r>
       <r>    8.7592    0.0000 </r>
       <r>    8.7933    0.0000 </r>
       <r>    9.6259    0.0000 </r>
       <r>    9.6259    0.0000 </r>
       <r>    9.7135    0.0000 </r>
       <r>    9.7868    0.0000 </r>
       <r>    9.9205    0.0000 </r>
       <r>   10.4152    0.0000 </r>
       <r>   10.6256    0.0000 </r>
       <r>   10.8695    0.0000 </r>
       <r>   10.8841    0.0000 </r>
       <r>   11.0079    0.0000 </r>
       <r>   11.1315    0.0000 </r>
      </set>
     </set>
    </set>
   </array>
  </eigenvalues>
  <separator name="orbital magnetization" >
   <v name="MAGDIPOLOUT">      0.00000000      0.00000000      0.00000000</v>
  </separator>
  <dos>
   <i name="efermi">      7.30202979 </i>
   <total>
    <array>
     <dimension dim="1">gridpoints</dimension>
     <dimension dim="2">spin</dimension>
     <field>energy</field>
     <field>total</field>
     <field>integrated</field>
     <set>
      <set comment="spin 1">
       <r>   -54.2203     0.0000     0.0000 </r>
       <r>   -53.9905     0.0000     0.0000 </r>
       <r>   -53.7606     0.0000     0.0000 </r>
       <r>   -53.5308     0.0000     0.0000 </r>
       <r>   -53.3010     0.0000     0.0000 </r>
       <r>   -53.0712     0.0000     0.0000 </r>
       <r>   -52.8414     0.0000     0.0000 </r>
       <r>   -52.6116     0.0000     0.0000 </r>
       <r>   -52.3818     0.0000     0.0000 </r>
       <r>   -52.1519     0.0000     0.0000 </r>
       <r>   -51.9221     0.0000     0.0000 </r>
       <r>   -51.6923     0.0000     0.0000 </r>
       <r>   -51.4625     0.0000     0.0000 </r>
       <r>   -51.2327     0.0000     0.0000 </r>
       <r>   -51.0029     0.0000     2.0000 </r>
       <r>   -50.7731     0.0000     2.0000 </r>
       <r>   -50.5432     0.0000     2.0000 </r>
       <r>   -50.3134     0.0000     2.0000 </r>
       <r>   -50.0836     0.0000     2.0000 </r>
       <r>   -49.8538     0.0000     2.0000 </r>
       <r>   -49.6240     0.0000     2.0000 </r>
       <r>   -49.3942     0.0000     8.0000 </r>
       <r>   -49.1644     0.0000     8.0000 </r>
       <r>   -48.9345     0.0000     8.0000 </r>
       <r>   -48.7047     0.0000     8.0000 </r>
       <r>   -48.4749     0.0000     8.0000 </r>
       <r>   -48.2451     0.0000     8.0000 </r>
       <r>   -48.0153     0.0000     8.0000 </r>
       <r>   -47.7855     0.0000     8.0000 </r>
       <r>   -47.5557     0.0000     8.0000 </r>
       <r>   -47.3258     0.0000     8.0000 </r>
       <r>   -47.0960     0.0000     8.0000 </r>
       <r>   -46.8662     0.0000     8.0000 </r>
       <r>   -46.6364     0.0000     8.0000 </r>
       <r>   -46.4066     0.0000     8.0000 </r>
       <r>   -46.1768     0.0000     8.0000 </r>
       <r>   -45.9469     0.0000     8.0000 </r>
       <r>   -45.7171     0.0000     8.0000 </r>
       <r>   -45.4873     0.0000     8.0000 </r>
       <r>   -45.2575     0.0000     8.0000 </r>
       <r>   -45.0277     0.0000     8.0000 </r>
       <r>   -44.7979     0.0000     8.0000 </r>
       <r>   -44.5681     0.0000     8.0000 </r>
       <r>   -44.3382     0.0000     8.0000 </r>
       <r>   -44.1084     0.0000     8.0000 </r>
       <r>   -43.8786     0.0000     8.0000 </r>
       <r>   -43.6488     0.0000     8.0000 </r>
       <r>   -43.4190     0.0000     8.0000 </r>
       <r>   -43.1892     0.0000     8.0000 </r>
       <r>   -42.9594     0.0000     8.0000 </r>
       <r>   -42.7295     0.0000     8.0000 </r>
       <r>   -42.4997     0.0000     8.0000 </r>
       <r>   -42.2699     0.0000     8.0000 </r>
       <r>   -42.0401     0.0000     8.0000 </r>
       <r>   -41.8103     0.0000     8.0000 </r>
       <r>   -41.5805     0.0000     8.0000 </r>
       <r>   -41.3507     0.0000     8.0000 </r>
       <r>   -41.1208     0.0000     8.0000 </r>
       <r>   -40.8910     0.0000     8.0000 </r>
       <r>   -40.6612     0.0000     8.0000 </r>
       <r>   -40.4314     0.0000     8.0000 </r>
       <r>   -40.2016     0.0000     8.0000 </r>
       <r>   -39.9718     0.0000     8.0000 </r>
       <r>   -39.7420     0.0000     8.0000 </r>
       <r>   -39.5121     0.0000     8.0000 </r>
       <r>   -39.2823     0.0000     8.0000 </r>
       <r>   -39.0525     0.0000     8.0000 </r>
       <r>   -38.8227     0.0000     8.0000 </r>
       <r>   -38.5929     0.0000     8.0000 </r>
       <r>   -38.3631     0.0000     8.0000 </r>
       <r>   -38.1333     0.0000     8.0000 </r>
       <r>   -37.9034     0.0000     8.0000 </r>
       <r>   -37.6736     0.0000     8.0000 </r>
       <r>   -37.4438     0.0000     8.0000 </r>
       <r>   -37.2140     0.0000     8.0000 </r>
       <r>   -36.9842     0.0000     8.0000 </r>
       <r>   -36.7544     0.0000     8.0000 </r>
       <r>   -36.5245     0.0000     8.0000 </r>
       <r>   -36.2947     0.0000     8.0000 </r>
       <r>   -36.0649     0.0000     8.0000 </r>
       <r>   -35.8351     0.0000     8.0000 </r>
       <r>   -35.6053     0.0000     8.0000 </r>
       <r>   -35.3755     0.0000     8.0000 </r>
       <r>   -35.1457     0.0000     8.0000 </r>
       <r>   -34.9158     0.0000     8.0000 </r>
       <r>   -34.6860     0.0000     8.0000 </r>
       <r>   -34.4562     0.0000     8.0000 </r>
       <r>   -34.2264     0.0000     8.0000 </r>
       <r>   -33.9966     0.0000     8.0000 </r>
       <r>   -33.7668     0.0000     8.0000 </r>
       <r>   -33.5370     0.0000     8.0000 </r>
       <r>   -33.3071     0.0000     8.0000 </r>
       <r>   -33.0773     0.0000     8.0000 </r>
       <r>   -32.8475     0.0000     8.0000 </r>
       <r>   -32.6177     0.0000     8.0000 </r>
       <r>   -32.3879     0.0000     8.0000 </r>
       <r>   -32.1581     0.0000     8.0000 </r>
       <r>   -31.9283     0.0000     8.0000 </r>
       <r>   -31.6984     0.0000     8.0000 </r>
       <r>   -31.4686     0.0000     8.0000 </r>
       <r>   -31.2388     0.0000     8.0000 </r>
       <r>   -31.0090     0.0000     8.0000 </r>
       <r>   -30.7792     0.0000     8.0000 </r>
       <r>   -30.5494     0.0000     8.0000 </r>
       <r>   -30.3196     0.0000     8.0000 </r>
       <r>   -30.0897     0.0000     8.0000 </r>
       <r>   -29.8599     0.0000     8.0000 </r>
       <r>   -29.6301     0.0000     8.0000 </r>
       <r>   -29.4003     0.0000     8.0000 </r>
       <r>   -29.1705     0.0000     8.0000 </r>
       <r>   -28.9407   334.3396    12.0500 </r>
       <r>   -28.7108     0.0000    16.0000 </r>
       <r>   -28.4810     0.0000    16.0000 </r>
       <r>   -28.2512     0.0000    16.0000 </r>
       <r>   -28.0214     0.0000    16.0000 </r>
       <r>   -27.7916     0.0000    16.0000 </r>
       <r>   -27.5618     0.0000    16.0000 </r>
       <r>   -27.3320     0.0000    22.0000 </r>
       <r>   -27.1021     0.0000    22.0000 </r>
       <r>   -26.8723     0.0000    22.0000 </r>
       <r>   -26.6425     0.0000    22.0000 </r>
       <r>   -26.4127     0.0000    22.0000 </r>
       <r>   -26.1829     0.0000    22.0000 </r>
       <r>   -25.9531     0.0000    22.0000 </r>
       <r>   -25.7233    87.4178    31.2251 </r>
       <r>   -25.4934     0.0000    40.0000 </r>
       <r>   -25.2636     0.0000    40.0000 </r>
       <r>   -25.0338     0.0000    40.0000 </r>
       <r>   -24.8040     0.0000    40.0000 </r>
       <r>   -24.5742     0.0000    40.0000 </r>
       <r>   -24.3444     0.0000    40.0000 </r>
       <r>   -24.1146     0.0000    40.0000 </r>
       <r>   -23.8847     0.0000    40.0000 </r>
       <r>   -23.6549     0.0000    40.0000 </r>
       <r>   -23.4251     0.0000    40.0000 </r>
       <r>   -23.1953     0.0000    40.0000 </r>
       <r>   -22.9655     0.0000    40.0000 </r>
       <r>   -22.7357     0.0000    40.0000 </r>
       <r>   -22.5059     0.0000    40.0000 </r>
       <r>   -22.2760     0.0000    40.0000 </r>
       <r>   -22.0462     0.0000    40.0000 </r>
       <r>   -21.8164     0.0000    40.0000 </r>
       <r>   -21.5866     0.0000    40.0000 </r>
       <r>   -21.3568     0.0000    40.0000 </r>
       <r>   -21.1270     0.0000    40.0000 </r>
       <r>   -20.8972     0.0000    40.0000 </r>
       <r>   -20.6673     0.0000    40.0000 </r>
       <r>   -20.4375     0.0000    40.0000 </r>
       <r>   -20.2077     0.0000    40.0000 </r>
       <r>   -19.9779     0.0000    40.0000 </r>
       <r>   -19.7481     0.0000    40.0000 </r>
       <r>   -19.5183     0.0000    40.0000 </r>
       <r>   -19.2884     0.0000    40.0000 </r>
       <r>   -19.0586     0.0000    40.0000 </r>
       <r>   -18.8288     0.0000    40.0000 </r>
       <r>   -18.5990     0.0000    40.0000 </r>
       <r>   -18.3692     0.0000    40.0000 </r>
       <r>   -18.1394     0.0000    40.0000 </r>
       <r>   -17.9096     0.0000    40.0000 </r>
       <r>   -17.6797     0.0000    40.0000 </r>
       <r>   -17.4499     0.0000    40.0000 </r>
       <r>   -17.2201     0.0000    40.0000 </r>
       <r>   -16.9903     0.0000    40.0000 </r>
       <r>   -16.7605     0.0000    40.0000 </r>
       <r>   -16.5307     0.0000    40.0000 </r>
       <r>   -16.3009     0.0000    40.0000 </r>
       <r>   -16.0710     0.0000    40.0000 </r>
       <r>   -15.8412     0.0000    40.0000 </r>
       <r>   -15.6114     0.0000    40.0000 </r>
       <r>   -15.3816     0.0000    40.0000 </r>
       <r>   -15.1518     0.0000    40.0000 </r>
       <r>   -14.9220     0.0000    40.0000 </r>
       <r>   -14.6922     0.0000    40.0000 </r>
       <r>   -14.4623     0.0000    40.0000 </r>
       <r>   -14.2325     0.0000    40.0000 </r>
       <r>   -14.0027     0.0000    40.0000 </r>
       <r>   -13.7729     0.0000    40.0000 </r>
       <r>   -13.5431     0.0000    40.0000 </r>
       <r>   -13.3133     2.3209    40.0726 </r>
       <r>   -13.0835     6.4230    42.1396 </r>
       <r>   -12.8536     9.6677    43.9913 </r>
       <r>   -12.6238     2.9245    46.0965 </r>
       <r>   -12.3940    14.1548    48.7897 </r>
       <r>   -12.1642    23.3435    52.6840 </r>
       <r>   -11.9344    25.3123    58.5654 </r>
       <r>   -11.7046    13.8895    63.0603 </r>
       <r>   -11.4747     0.0000    64.0000 </r>
       <r>   -11.2449     0.0000    64.0000 </r>
       <r>   -11.0151    23.5621    64.8590 </r>
       <r>   -10.7853    34.0133    75.8293 </r>
       <r>   -10.5555    22.4854    85.1215 </r>
       <r>   -10.3257     0.0000    88.0000 </r>
       <r>   -10.0959     0.0000    88.0000 </r>
       <r>    -9.8660     0.0000    88.0000 </r>
       <r>    -9.6362     0.0000    88.0000 </r>
       <r>    -9.4064     0.0000    88.0000 </r>
       <r>    -9.1766     0.0000    88.0000 </r>
       <r>    -8.9468     0.0000    88.0000 </r>
       <r>    -8.7170     0.0000    88.0000 </r>
       <r>    -8.4872     0.0000    88.0000 </r>
       <r>    -8.2573     0.0000    88.0000 </r>
       <r>    -8.0275     0.0000    88.0000 </r>
       <r>    -7.7977     0.0000    88.0000 </r>
       <r>    -7.5679     0.0000    88.0000 </r>
       <r>    -7.3381     0.0000    88.0000 </r>
       <r>    -7.1083     0.0000    88.0000 </r>
       <r>    -6.8785     0.0000    88.0000 </r>
       <r>    -6.6486     0.0000    88.0000 </r>
       <r>    -6.4188     0.0000    88.0000 </r>
       <r>    -6.1890     0.0000    88.0000 </r>
       <r>    -5.9592     0.0000    88.0000 </r>
       <r>    -5.7294     0.0000    88.0000 </r>
       <r>    -5.4996     0.0000    88.0000 </r>
       <r>    -5.2698     0.0000    88.0000 </r>
       <r>    -5.0399     0.0000    88.0000 </r>
       <r>    -4.8101     0.0000    88.0000 </r>
       <r>    -4.5803     0.0000    88.0000 </r>
       <r>    -4.3505     0.0000    88.0000 </r>
       <r>    -4.1207     0.0000    88.0000 </r>
       <r>    -3.8909     0.0000    88.0000 </r>
       <r>    -3.6611     0.0000    88.0000 </r>
       <r>    -3.4312     0.0000    88.0000 </r>
       <r>    -3.2014     0.0000    88.0000 </r>
       <r>    -2.9716     0.0000    88.0000 </r>
       <r>    -2.7418     0.0000    88.0000 </r>
       <r>    -2.5120     0.0000    88.0000 </r>
       <r>    -2.2822     0.0000    88.0000 </r>
       <r>    -2.0523     0.0000    88.0000 </r>
       <r>    -1.8225     0.0000    88.0000 </r>
       <r>    -1.5927     0.0000    88.0000 </r>
       <r>    -1.3629     0.0000    88.0000 </r>
       <r>    -1.1331     0.0000    88.0000 </r>
       <r>    -0.9033     0.0000    88.0000 </r>
       <r>    -0.6735     6.8471    88.6959 </r>
       <r>    -0.4436     6.6344    90.4402 </r>
       <r>    -0.2138     7.7539    91.9819 </r>
       <r>     0.0160    14.4394    94.3261 </r>
       <r>     0.2458    14.1658    98.2700 </r>
       <r>     0.4756    13.9905   102.7117 </r>
       <r>     0.7054    12.9179   105.8678 </r>
       <r>     0.9352    19.8354   109.4016 </r>
       <r>     1.1651    13.1188   113.8143 </r>
       <r>     1.3949    20.5545   117.0258 </r>
       <r>     1.6247    27.7309   122.0137 </r>
       <r>     1.8545    12.9225   126.9655 </r>
       <r>     2.0843    10.7831   129.3671 </r>
       <r>     2.3141    19.7252   132.5974 </r>
       <r>     2.5439    11.3375   135.6839 </r>
       <r>     2.7738    18.1432   139.0104 </r>
       <r>     3.0036    34.9852   144.1059 </r>
       <r>     3.2334    30.4083   149.3245 </r>
       <r>     3.4632     7.2552   153.4963 </r>
       <r>     3.6930    11.4053   156.9049 </r>
       <r>     3.9228     9.4337   159.5113 </r>
       <r>     4.1526     0.0000   160.0000 </r>
       <r>     4.3825     0.0000   160.0000 </r>
       <r>     4.6123     0.0000   160.0000 </r>
       <r>     4.8421     0.0000   160.0000 </r>
       <r>     5.0719     0.0000   160.0000 </r>
       <r>     5.3017     0.0000   160.0000 </r>
       <r>     5.5315     0.0000   160.0000 </r>
       <r>     5.7614     0.0000   160.0000 </r>
       <r>     5.9912     0.0000   160.0000 </r>
       <r>     6.2210     0.0000   160.0000 </r>
       <r>     6.4508     0.1597   160.0041 </r>
       <r>     6.6806     2.5351   160.2955 </r>
       <r>     6.9104     4.1298   161.1319 </r>
       <r>     7.1402     4.7840   162.1209 </r>
       <r>     7.3701    12.4970   163.5451 </r>
       <r>     7.5999     4.2231   165.1714 </r>
       <r>     7.8297     2.2523   165.9078 </r>
       <r>     8.0595    15.3760   166.8391 </r>
       <r>     8.2893    10.9703   169.5371 </r>
       <r>     8.5191    15.1167   172.0274 </r>
       <r>     8.7489    19.8441   175.8266 </r>
       <r>     8.9788     6.8828   179.2052 </r>
       <r>     9.2086     9.3500   181.3197 </r>
       <r>     9.4384     5.5205   183.1488 </r>
       <r>     9.6682     2.2980   184.0850 </r>
       <r>     9.8980     4.8734   184.7415 </r>
       <r>    10.1278     6.9382   186.2204 </r>
       <r>    10.3576     7.4370   187.8819 </r>
       <r>    10.5875    10.0298   189.8500 </r>
       <r>    10.8173    10.6198   192.1610 </r>
       <r>    11.0471    34.7474   195.1669 </r>
       <r>    11.2769     6.1918   198.2099 </r>
       <r>    11.5067     2.8815   199.9053 </r>
       <r>    11.7365     0.0000   200.0000 </r>
       <r>    11.9663     0.0000   200.0000 </r>
       <r>    12.1962     0.0000   200.0000 </r>
       <r>    12.4260     0.0000   200.0000 </r>
       <r>    12.6558     0.0000   200.0000 </r>
       <r>    12.8856     0.0000   200.0000 </r>
       <r>    13.1154     0.0000   200.0000 </r>
       <r>    13.3452     0.0000   200.0000 </r>
       <r>    13.5750     0.0000   200.0000 </r>
       <r>    13.8049     0.0000   200.0000 </r>
       <r>    14.0347     0.0000   200.0000 </r>
       <r>    14.2645     0.0000   200.0000 </r>
       <r>    14.4943     0.0000   200.0000 </r>
       <r>    14.7241     0.0000   200.0000 </r>
      </set>
     </set>
    </array>
   </total>
  </dos>
 </calculation>
 <structure name="finalpos" >
  <crystal>
   <varray name="basis" >
    <v>       4.02984383       4.02984383      -4.02984383 </v>
    <v>       4.02984383      -4.02984383       4.02984383 </v>
    <v>      -4.02984383      -4.02984383      -4.02984383 </v>
   </varray>
   <i name="volume">    261.77287396 </i>
   <varray name="rec_basis" >
    <v>       0.12407429       0.00000000      -0.12407429 </v>
    <v>       0.12407429      -0.12407429       0.00000000 </v>
    <v>       0.00000000      -0.12407429      -0.12407429 </v>
   </varray>
  </crystal>
  <varray name="positions" >
   <v>       0.50000000       0.00000000       0.00000000 </v>
   <v>       0.00000000       0.50000000       0.00000000 </v>
   <v>       0.00000000       0.00000000       0.50000000 </v>
   <v>       0.75000000       0.25000000       0.00000000 </v>
   <v>       0.50000000       0.74839170       0.74839170 </v>
   <v>       0.25000000       0.00000000       0.75000000 </v>
   <v>       0.25000000       0.75000000       0.00000000 </v>
   <v>       0.00000000       0.25000000       0.75000000 </v>
   <v>       0.74839170       0.50000000       0.74839170 </v>
   <v>       0.25160830       0.25160830       0.50000000 </v>
   <v>       0.00000000       0.75000000       0.25000000 </v>
   <v>       0.75000000       0.00000000       0.25000000 </v>
   <v>       0.74839170       0.74839170       0.50000000 </v>
   <v>       0.50000000       0.25160830       0.25160830 </v>
   <v>       0.25160830       0.50000000       0.25160830 </v>
   <v>       0.50000000       0.00000000       0.50000000 </v>
   <v>       0.00000000       0.50000000       0.50000000 </v>
   <v>       0.00000000       0.00000000       0.00000000 </v>
   <v>       0.50000000       0.50000000       0.00000000 </v>
   <v>       0.50000000       0.50000000       0.50000000 </v>
  </varray>
 </structure>
</modeling>
