  15  15   0   0
  0.1265678E+02  0.3985150E-09  0.3985150E-09  0.1195433E-08  0.5000000E-15
  1.000000000000000E-004
  CAR 
 unknown system                          
     14.26691829    -55.10552562  301      6.60321322      1.00000000
    -55.106  0.0000E+00  0.0000E+00
    -54.874  0.0000E+00  0.0000E+00
    -54.643  0.0000E+00  0.0000E+00
    -54.412  0.0000E+00  0.0000E+00
    -54.181  0.0000E+00  0.0000E+00
    -53.949  0.0000E+00  0.0000E+00
    -53.718  0.0000E+00  0.0000E+00
    -53.487  0.0000E+00  0.0000E+00
    -53.256  0.0000E+00  0.0000E+00
    -53.024  0.0000E+00  0.0000E+00
    -52.793  0.0000E+00  0.0000E+00
    -52.562  0.0000E+00  0.0000E+00
    -52.331  0.0000E+00  0.0000E+00
    -52.099  0.0000E+00  0.0000E+00
    -51.868  0.0000E+00  0.4000E+01
    -51.637  0.0000E+00  0.4000E+01
    -51.406  0.0000E+00  0.4000E+01
    -51.174  0.0000E+00  0.4000E+01
    -50.943  0.0000E+00  0.4000E+01
    -50.712  0.0000E+00  0.4000E+01
    -50.481  0.0000E+00  0.4000E+01
    -50.249  0.0000E+00  0.6000E+01
    -50.018  0.0000E+00  0.6000E+01
    -49.787  0.0000E+00  0.6000E+01
    -49.556  0.0000E+00  0.6000E+01
    -49.324  0.0000E+00  0.6000E+01
    -49.093  0.0000E+00  0.6000E+01
    -48.862  0.0000E+00  0.6000E+01
    -48.631  0.0000E+00  0.6000E+01
    -48.400  0.0000E+00  0.6000E+01
    -48.168  0.0000E+00  0.6000E+01
    -47.937  0.0000E+00  0.6000E+01
    -47.706  0.0000E+00  0.6000E+01
    -47.475  0.0000E+00  0.6000E+01
    -47.243  0.0000E+00  0.6000E+01
    -47.012  0.0000E+00  0.6000E+01
    -46.781  0.0000E+00  0.6000E+01
    -46.550  0.0000E+00  0.6000E+01
    -46.318  0.0000E+00  0.6000E+01
    -46.087  0.0000E+00  0.6000E+01
    -45.856  0.0000E+00  0.6000E+01
    -45.625  0.0000E+00  0.6000E+01
    -45.393  0.0000E+00  0.6000E+01
    -45.162  0.0000E+00  0.6000E+01
    -44.931  0.0000E+00  0.6000E+01
    -44.700  0.0000E+00  0.6000E+01
    -44.468  0.0000E+00  0.6000E+01
    -44.237  0.0000E+00  0.6000E+01
    -44.006  0.0000E+00  0.6000E+01
    -43.775  0.0000E+00  0.6000E+01
    -43.543  0.0000E+00  0.6000E+01
    -43.312  0.0000E+00  0.6000E+01
    -43.081  0.0000E+00  0.6000E+01
    -42.850  0.0000E+00  0.6000E+01
    -42.618  0.0000E+00  0.6000E+01
    -42.387  0.0000E+00  0.6000E+01
    -42.156  0.0000E+00  0.6000E+01
    -41.925  0.0000E+00  0.6000E+01
    -41.694  0.0000E+00  0.6000E+01
    -41.462  0.0000E+00  0.6000E+01
    -41.231  0.0000E+00  0.6000E+01
    -41.000  0.0000E+00  0.6000E+01
    -40.769  0.0000E+00  0.6000E+01
    -40.537  0.0000E+00  0.6000E+01
    -40.306  0.0000E+00  0.6000E+01
    -40.075  0.0000E+00  0.6000E+01
    -39.844  0.0000E+00  0.6000E+01
    -39.612  0.0000E+00  0.6000E+01
    -39.381  0.0000E+00  0.6000E+01
    -39.150  0.0000E+00  0.6000E+01
    -38.919  0.0000E+00  0.6000E+01
    -38.687  0.0000E+00  0.6000E+01
    -38.456  0.0000E+00  0.6000E+01
    -38.225  0.0000E+00  0.6000E+01
    -37.994  0.0000E+00  0.6000E+01
    -37.762  0.0000E+00  0.6000E+01
    -37.531  0.0000E+00  0.6000E+01
    -37.300  0.0000E+00  0.6000E+01
    -37.069  0.0000E+00  0.6000E+01
    -36.837  0.0000E+00  0.6000E+01
    -36.606  0.0000E+00  0.6000E+01
    -36.375  0.0000E+00  0.6000E+01
    -36.144  0.0000E+00  0.6000E+01
    -35.912  0.0000E+00  0.6000E+01
    -35.681  0.0000E+00  0.6000E+01
    -35.450  0.0000E+00  0.6000E+01
    -35.219  0.0000E+00  0.6000E+01
    -34.988  0.0000E+00  0.6000E+01
    -34.756  0.0000E+00  0.6000E+01
    -34.525  0.0000E+00  0.6000E+01
    -34.294  0.0000E+00  0.6000E+01
    -34.063  0.0000E+00  0.6000E+01
    -33.831  0.0000E+00  0.6000E+01
    -33.600  0.0000E+00  0.6000E+01
    -33.369  0.0000E+00  0.6000E+01
    -33.138  0.0000E+00  0.6000E+01
    -32.906  0.0000E+00  0.6000E+01
    -32.675  0.0000E+00  0.6000E+01
    -32.444  0.0000E+00  0.6000E+01
    -32.213  0.0000E+00  0.6000E+01
    -31.981  0.0000E+00  0.6000E+01
    -31.750  0.0000E+00  0.6000E+01
    -31.519  0.0000E+00  0.6000E+01
    -31.288  0.0000E+00  0.6000E+01
    -31.056  0.0000E+00  0.6000E+01
    -30.825  0.0000E+00  0.6000E+01
    -30.594  0.0000E+00  0.6000E+01
    -30.363  0.0000E+00  0.6000E+01
    -30.131  0.0000E+00  0.6000E+01
    -29.900  0.0000E+00  0.6000E+01
    -29.669  0.0000E+00  0.6000E+01
    -29.438  0.0000E+00  0.6000E+01
    -29.206  0.0000E+00  0.6000E+01
    -28.975  0.1639E+03  0.8567E+01
    -28.744  0.0000E+00  0.1200E+02
    -28.513  0.0000E+00  0.1200E+02
    -28.282  0.0000E+00  0.1200E+02
    -28.050  0.0000E+00  0.2400E+02
    -27.819  0.0000E+00  0.2400E+02
    -27.588  0.0000E+00  0.2400E+02
    -27.357  0.0000E+00  0.2400E+02
    -27.125  0.0000E+00  0.2400E+02
    -26.894  0.0000E+00  0.2400E+02
    -26.663  0.0000E+00  0.2400E+02
    -26.432  0.7216E+01  0.3000E+02
    -26.200  0.0000E+00  0.3000E+02
    -25.969  0.0000E+00  0.3000E+02
    -25.738  0.0000E+00  0.3000E+02
    -25.507  0.0000E+00  0.3000E+02
    -25.275  0.0000E+00  0.3000E+02
    -25.044  0.0000E+00  0.3000E+02
    -24.813  0.0000E+00  0.3000E+02
    -24.582  0.0000E+00  0.3000E+02
    -24.350  0.0000E+00  0.3000E+02
    -24.119  0.0000E+00  0.3000E+02
    -23.888  0.0000E+00  0.3000E+02
    -23.657  0.0000E+00  0.3000E+02
    -23.425  0.0000E+00  0.3000E+02
    -23.194  0.0000E+00  0.3000E+02
    -22.963  0.0000E+00  0.3000E+02
    -22.732  0.0000E+00  0.3000E+02
    -22.500  0.0000E+00  0.3000E+02
    -22.269  0.0000E+00  0.3000E+02
    -22.038  0.0000E+00  0.3000E+02
    -21.807  0.0000E+00  0.3000E+02
    -21.576  0.0000E+00  0.3000E+02
    -21.344  0.0000E+00  0.3000E+02
    -21.113  0.0000E+00  0.3000E+02
    -20.882  0.0000E+00  0.3000E+02
    -20.651  0.0000E+00  0.3000E+02
    -20.419  0.0000E+00  0.3000E+02
    -20.188  0.0000E+00  0.3000E+02
    -19.957  0.0000E+00  0.3000E+02
    -19.726  0.0000E+00  0.3000E+02
    -19.494  0.0000E+00  0.3000E+02
    -19.263  0.0000E+00  0.3000E+02
    -19.032  0.0000E+00  0.3000E+02
    -18.801  0.0000E+00  0.3000E+02
    -18.569  0.0000E+00  0.3000E+02
    -18.338  0.0000E+00  0.3000E+02
    -18.107  0.0000E+00  0.3000E+02
    -17.876  0.0000E+00  0.3000E+02
    -17.644  0.0000E+00  0.3000E+02
    -17.413  0.0000E+00  0.3000E+02
    -17.182  0.0000E+00  0.3000E+02
    -16.951  0.0000E+00  0.3000E+02
    -16.719  0.0000E+00  0.3000E+02
    -16.488  0.0000E+00  0.3000E+02
    -16.257  0.0000E+00  0.3000E+02
    -16.026  0.0000E+00  0.3000E+02
    -15.794  0.0000E+00  0.3000E+02
    -15.563  0.0000E+00  0.3000E+02
    -15.332  0.0000E+00  0.3000E+02
    -15.101  0.0000E+00  0.3000E+02
    -14.870  0.0000E+00  0.3000E+02
    -14.638  0.0000E+00  0.3000E+02
    -14.407  0.0000E+00  0.3000E+02
    -14.176  0.0000E+00  0.3000E+02
    -13.945  0.0000E+00  0.3000E+02
    -13.713  0.0000E+00  0.3000E+02
    -13.482  0.5865E+01  0.3032E+02
    -13.251  0.2294E+01  0.3127E+02
    -13.020  0.9489E+01  0.3330E+02
    -12.788  0.6530E+01  0.3532E+02
    -12.557  0.1441E+02  0.3674E+02
    -12.326  0.9628E+01  0.3949E+02
    -12.095  0.4442E+02  0.4505E+02
    -11.863  0.0000E+00  0.4800E+02
    -11.632  0.0000E+00  0.4800E+02
    -11.401  0.0000E+00  0.4800E+02
    -11.170  0.0000E+00  0.4800E+02
    -10.938  0.5006E+02  0.5116E+02
    -10.707  0.3217E+02  0.5856E+02
    -10.476  0.2493E+02  0.6373E+02
    -10.245  0.0000E+00  0.6600E+02
    -10.013  0.0000E+00  0.6600E+02
     -9.782  0.0000E+00  0.6600E+02
     -9.551  0.0000E+00  0.6600E+02
     -9.320  0.0000E+00  0.6600E+02
     -9.088  0.0000E+00  0.6600E+02
     -8.857  0.0000E+00  0.6600E+02
     -8.626  0.0000E+00  0.6600E+02
     -8.395  0.0000E+00  0.6600E+02
     -8.164  0.0000E+00  0.6600E+02
     -7.932  0.0000E+00  0.6600E+02
     -7.701  0.0000E+00  0.6600E+02
     -7.470  0.0000E+00  0.6600E+02
     -7.239  0.0000E+00  0.6600E+02
     -7.007  0.0000E+00  0.6600E+02
     -6.776  0.0000E+00  0.6600E+02
     -6.545  0.0000E+00  0.6600E+02
     -6.314  0.0000E+00  0.6600E+02
     -6.082  0.0000E+00  0.6600E+02
     -5.851  0.0000E+00  0.6600E+02
     -5.620  0.0000E+00  0.6600E+02
     -5.389  0.0000E+00  0.6600E+02
     -5.157  0.0000E+00  0.6600E+02
     -4.926  0.0000E+00  0.6600E+02
     -4.695  0.0000E+00  0.6600E+02
     -4.464  0.0000E+00  0.6600E+02
     -4.232  0.0000E+00  0.6600E+02
     -4.001  0.0000E+00  0.6600E+02
     -3.770  0.0000E+00  0.6600E+02
     -3.539  0.0000E+00  0.6600E+02
     -3.307  0.0000E+00  0.6600E+02
     -3.076  0.0000E+00  0.6600E+02
     -2.845  0.0000E+00  0.6600E+02
     -2.614  0.0000E+00  0.6600E+02
     -2.382  0.0000E+00  0.6600E+02
     -2.151  0.0000E+00  0.6600E+02
     -1.920  0.0000E+00  0.6600E+02
     -1.689  0.0000E+00  0.6600E+02
     -1.458  0.0000E+00  0.6600E+02
     -1.226  0.1553E+01  0.6615E+02
     -0.995  0.1022E+01  0.6675E+02
     -0.764  0.1831E+01  0.6717E+02
     -0.533  0.3431E+01  0.6766E+02
     -0.301  0.1335E+02  0.6936E+02
     -0.070  0.4965E+01  0.7151E+02
      0.161  0.1060E+02  0.7316E+02
      0.392  0.1205E+02  0.7612E+02
      0.624  0.1148E+02  0.7876E+02
      0.855  0.1536E+02  0.8176E+02
      1.086  0.1742E+02  0.8561E+02
      1.317  0.2461E+02  0.8987E+02
      1.549  0.1139E+02  0.9380E+02
      1.780  0.8427E+01  0.9616E+02
      2.011  0.6349E+01  0.9783E+02
      2.242  0.9536E+01  0.1000E+03
      2.474  0.1157E+02  0.1019E+03
      2.705  0.1694E+02  0.1053E+03
      2.936  0.9620E+01  0.1083E+03
      3.167  0.1824E+02  0.1121E+03
      3.399  0.1095E+02  0.1158E+03
      3.630  0.7057E+01  0.1180E+03
      3.861  0.1223E+02  0.1195E+03
      4.092  0.0000E+00  0.1200E+03
      4.324  0.0000E+00  0.1200E+03
      4.555  0.0000E+00  0.1200E+03
      4.786  0.0000E+00  0.1200E+03
      5.017  0.0000E+00  0.1200E+03
      5.249  0.0000E+00  0.1200E+03
      5.480  0.0000E+00  0.1200E+03
      5.711  0.0000E+00  0.1200E+03
      5.942  0.1362E+00  0.1200E+03
      6.173  0.3412E+00  0.1201E+03
      6.405  0.2378E+01  0.1203E+03
      6.636  0.4399E+01  0.1211E+03
      6.867  0.3117E+01  0.1221E+03
      7.098  0.4545E+01  0.1229E+03
      7.330  0.6137E+01  0.1242E+03
      7.561  0.7892E+01  0.1258E+03
      7.792  0.9721E+01  0.1279E+03
      8.023  0.1251E+02  0.1310E+03
      8.255  0.1294E+02  0.1339E+03
      8.486  0.4451E+01  0.1359E+03
      8.717  0.5018E+01  0.1368E+03
      8.948  0.4746E+01  0.1382E+03
      9.180  0.3608E+01  0.1390E+03
      9.411  0.3285E+01  0.1400E+03
      9.642  0.3271E+01  0.1407E+03
      9.873  0.2659E+01  0.1414E+03
     10.105  0.1454E+01  0.1418E+03
     10.336  0.1934E+01  0.1422E+03
     10.567  0.1817E+01  0.1426E+03
     10.798  0.2607E+01  0.1432E+03
     11.030  0.2217E+01  0.1438E+03
     11.261  0.0000E+00  0.1440E+03
     11.492  0.0000E+00  0.1440E+03
     11.723  0.0000E+00  0.1440E+03
     11.955  0.0000E+00  0.1440E+03
     12.186  0.0000E+00  0.1440E+03
     12.417  0.0000E+00  0.1440E+03
     12.648  0.0000E+00  0.1440E+03
     12.879  0.0000E+00  0.1440E+03
     13.111  0.0000E+00  0.1440E+03
     13.342  0.0000E+00  0.1440E+03
     13.573  0.0000E+00  0.1440E+03
     13.804  0.0000E+00  0.1440E+03
     14.036  0.0000E+00  0.1440E+03
     14.267  0.0000E+00  0.1440E+03
