       N       E                     dE             d eps       ncg     rms          rms(c)
DAV:   1     0.189242874490E+04    0.18924E+04   -0.83543E+04  6000   0.168E+03
DAV:   2     0.980888808266E+02   -0.17943E+04   -0.17042E+04  6660   0.535E+02
DAV:   3    -0.174390087622E+03   -0.27248E+03   -0.26758E+03  8228   0.201E+02
DAV:   4    -0.194165969867E+03   -0.19776E+02   -0.19612E+02  9744   0.552E+01
DAV:   5    -0.195417499258E+03   -0.12515E+01   -0.12451E+01 10376   0.111E+01    0.473E+01
DAV:   6    -0.162692971069E+03    0.32725E+02   -0.19923E+02  8664   0.584E+01    0.301E+01
DAV:   7    -0.163766871257E+03   -0.10739E+01   -0.81581E+01  8680   0.322E+01    0.215E+01
DAV:   8    -0.161757886545E+03    0.20090E+01   -0.96850E+00  8896   0.165E+01    0.981E+00
DAV:   9    -0.162454116431E+03   -0.69623E+00   -0.75039E+00  9552   0.798E+00    0.676E+00
DAV:  10    -0.161874864031E+03    0.57925E+00   -0.11270E+01  8244   0.936E+00    0.178E+00
DAV:  11    -0.161813986433E+03    0.60878E-01   -0.39943E-01  7960   0.222E+00    0.969E-01
DAV:  12    -0.161805421096E+03    0.85653E-02   -0.11062E-01  8928   0.163E+00    0.558E-01
DAV:  13    -0.161811987680E+03   -0.65666E-02   -0.42619E-02  9144   0.801E-01    0.406E-01
DAV:  14    -0.161808091363E+03    0.38963E-02   -0.82812E-03  9248   0.360E-01    0.200E-01
DAV:  15    -0.161808225850E+03   -0.13449E-03   -0.84960E-04  8800   0.130E-01    0.154E-01
DAV:  16    -0.161807066004E+03    0.11598E-02   -0.90901E-04  8912   0.127E-01    0.435E-02
DAV:  17    -0.161807087459E+03   -0.21455E-04   -0.10056E-04  7344   0.463E-02    0.172E-02
DAV:  18    -0.161807024351E+03    0.63108E-04   -0.24214E-05  5696   0.220E-02    0.551E-03
DAV:  19    -0.161807012620E+03    0.11731E-04   -0.49708E-06  4032   0.135E-02    0.464E-03
DAV:  20    -0.161807009261E+03    0.33589E-05   -0.17849E-06  4000   0.835E-03
   1 F= -.16180701E+03 E0= -.16180701E+03  d E =-.161807E+03
       N       E                     dE             d eps       ncg     rms          rms(c)
DAV:   1    -0.172392175235E+03   -0.10585E+02   -0.36377E+02  7720   0.976E+01    0.286E+01
DAV:   2    -0.166558211055E+03    0.58340E+01   -0.85162E+01  8016   0.392E+01    0.130E+01
DAV:   3    -0.162160096664E+03    0.43981E+01   -0.15291E+01  9300   0.200E+01    0.843E+00
DAV:   4    -0.162013718277E+03    0.14638E+00   -0.79697E+00  8320   0.937E+00    0.586E+00
DAV:   5    -0.162095637505E+03   -0.81919E-01   -0.50585E+00  9356   0.740E+00    0.562E+00
DAV:   6    -0.161863609058E+03    0.23203E+00   -0.23632E+00  9120   0.350E+00    0.318E+00
DAV:   7    -0.162078047427E+03   -0.21444E+00   -0.15336E+00 10392   0.278E+00    0.374E+00
DAV:   8    -0.161912185259E+03    0.16586E+00   -0.19429E+00  9380   0.304E+00    0.839E-01
DAV:   9    -0.161907770719E+03    0.44145E-02   -0.69807E-02  8524   0.981E-01    0.566E-01
DAV:  10    -0.161908315570E+03   -0.54485E-03   -0.87202E-03  8204   0.310E-01    0.511E-01
DAV:  11    -0.161909725021E+03   -0.14095E-02   -0.65922E-03  8944   0.308E-01    0.204E-01
DAV:  12    -0.161910108530E+03   -0.38351E-03   -0.97154E-04  7908   0.131E-01    0.874E-02
DAV:  13    -0.161910597242E+03   -0.48871E-03   -0.52240E-04  8964   0.796E-02    0.409E-02
DAV:  14    -0.161910087303E+03    0.50994E-03   -0.66818E-04  7756   0.482E-02    0.475E-02
DAV:  15    -0.161910197805E+03   -0.11050E-03   -0.29572E-05  5216   0.224E-02    0.287E-02
DAV:  16    -0.161910421887E+03   -0.22408E-03   -0.35757E-05  4752   0.209E-02    0.102E-02
DAV:  17    -0.161910455721E+03   -0.33833E-04   -0.55954E-06  3988   0.111E-02    0.812E-03
DAV:  18    -0.161910490978E+03   -0.35257E-04   -0.18902E-06  3916   0.689E-03    0.487E-03
DAV:  19    -0.161910517568E+03   -0.26590E-04   -0.12643E-06  3748   0.481E-03    0.194E-03
DAV:  20    -0.161910531306E+03   -0.13738E-04   -0.85971E-07  3708   0.459E-03    0.779E-04
DAV:  21    -0.161910530273E+03    0.10333E-05   -0.37313E-07  3652   0.342E-03
   2 F= -.16191053E+03 E0= -.16191053E+03  d E =-.103521E+00
       N       E                     dE             d eps       ncg     rms          rms(c)
DAV:   1    -0.164692819483E+03   -0.27823E+01   -0.81976E+01  7880   0.463E+01    0.132E+01
DAV:   2    -0.162884710576E+03    0.18081E+01   -0.10758E+01  7700   0.133E+01    0.574E+00
DAV:   3    -0.163290715176E+03   -0.40600E+00   -0.18181E+01  8888   0.131E+01    0.559E+00
DAV:   4    -0.162513034541E+03    0.77768E+00   -0.13343E+00  8424   0.602E+00    0.269E+00
DAV:   5    -0.162258778845E+03    0.25426E+00   -0.40934E-01 10548   0.289E+00    0.154E+00
DAV:   6    -0.162250701626E+03    0.80772E-02   -0.33907E-01  9744   0.202E+00    0.982E-01
DAV:   7    -0.162248647421E+03    0.20542E-02   -0.17025E-01  8812   0.144E+00    0.815E-01
DAV:   8    -0.162253586227E+03   -0.49388E-02   -0.32656E-02  9316   0.585E-01    0.366E-01
DAV:   9    -0.162261558526E+03   -0.79723E-02   -0.24154E-02  9856   0.569E-01    0.240E-01
DAV:  10    -0.162260760259E+03    0.79827E-03   -0.58305E-03  8144   0.266E-01    0.204E-01
DAV:  11    -0.162257767816E+03    0.29924E-02   -0.29294E-03 10460   0.189E-01    0.499E-02
DAV:  12    -0.162257358338E+03    0.40948E-03   -0.35413E-04  8032   0.596E-02    0.273E-02
DAV:  13    -0.162257539084E+03   -0.18075E-03   -0.59842E-05  6420   0.270E-02    0.157E-02
DAV:  14    -0.162257513614E+03    0.25470E-04   -0.13703E-05  4304   0.155E-02    0.101E-02
DAV:  15    -0.162257496022E+03    0.17592E-04   -0.48749E-06  4012   0.124E-02    0.845E-03
DAV:  16    -0.162257375777E+03    0.12024E-03   -0.14353E-05  3996   0.118E-02    0.514E-03
DAV:  17    -0.162257380002E+03   -0.42247E-05   -0.16096E-06  3780   0.602E-03
   3 F= -.16225738E+03 E0= -.16225738E+03  d E =-.450371E+00
       N       E                     dE             d eps       ncg     rms          rms(c)
DAV:   1    -0.162258344698E+03   -0.96892E-03   -0.48516E-02  7896   0.113E+00    0.317E-01
DAV:   2    -0.162259477772E+03   -0.11331E-02   -0.67418E-03  7952   0.350E-01    0.154E-01
DAV:   3    -0.162255811816E+03    0.36660E-02   -0.76541E-03  8752   0.302E-01    0.222E-01
DAV:   4    -0.162257298654E+03   -0.14868E-02   -0.26415E-03  8160   0.202E-01    0.369E-02
DAV:   5    -0.162257463107E+03   -0.16445E-03   -0.17112E-04  8668   0.425E-02    0.330E-02
DAV:   6    -0.162257417234E+03    0.45873E-04   -0.18893E-05  4908   0.159E-02    0.242E-02
DAV:   7    -0.162257425520E+03   -0.82856E-05   -0.32828E-05  5592   0.158E-02
   4 F= -.16225743E+03 E0= -.16225743E+03  d E =-.450416E+00
       N       E                     dE             d eps       ncg     rms          rms(c)
DAV:   1    -0.162301657442E+03   -0.44240E-01   -0.12179E+01  6676   0.160E+01    0.141E+00
DAV:   2    -0.162343501186E+03   -0.41844E-01   -0.74939E-01  6576   0.330E+00    0.984E-01
DAV:   3    -0.162351944199E+03   -0.84430E-02   -0.67769E-02 10052   0.950E-01    0.566E-01
DAV:   4    -0.162345276677E+03    0.66675E-02   -0.58428E-02  9060   0.876E-01    0.680E-01
DAV:   5    -0.162345872329E+03   -0.59565E-03   -0.27491E-02  8528   0.562E-01    0.173E-01
DAV:   6    -0.162345383079E+03    0.48925E-03   -0.19371E-03 10016   0.144E-01    0.117E-01
DAV:   7    -0.162345737965E+03   -0.35489E-03   -0.31254E-04  8608   0.590E-02    0.682E-02
DAV:   8    -0.162345312324E+03    0.42564E-03   -0.26308E-04  8392   0.469E-02    0.245E-02
DAV:   9    -0.162345528460E+03   -0.21614E-03   -0.33879E-05  4600   0.237E-02    0.846E-03
DAV:  10    -0.162345553458E+03   -0.24997E-04   -0.10113E-05  4292   0.143E-02    0.485E-03
DAV:  11    -0.162345561677E+03   -0.82193E-05   -0.32325E-06  3864   0.965E-03
   5 F= -.16234556E+03 E0= -.16234556E+03  d E =-.881362E-01
       N       E                     dE             d eps       ncg     rms          rms(c)
DAV:   1    -0.162361343230E+03   -0.15790E-01   -0.39760E+00  6664   0.923E+00    0.810E-01
DAV:   2    -0.162375423855E+03   -0.14081E-01   -0.24674E-01  6628   0.191E+00    0.574E-01
DAV:   3    -0.162377502988E+03   -0.20791E-02   -0.18540E-02  9504   0.496E-01    0.294E-01
DAV:   4    -0.162374118403E+03    0.33846E-02   -0.12926E-02  9376   0.453E-01    0.372E-01
DAV:   5    -0.162376050271E+03   -0.19319E-02   -0.65159E-03  8380   0.328E-01    0.101E-01
DAV:   6    -0.162376072644E+03   -0.22373E-04   -0.56134E-04 10204   0.835E-02    0.690E-02
DAV:   7    -0.162376091335E+03   -0.18691E-04   -0.72811E-05  7236   0.294E-02    0.375E-02
DAV:   8    -0.162376129839E+03   -0.38504E-04   -0.13198E-05  4440   0.160E-02    0.820E-03
DAV:   9    -0.162376083062E+03    0.46778E-04   -0.49350E-06  4048   0.118E-02    0.357E-03
DAV:  10    -0.162376096213E+03   -0.13152E-04   -0.27400E-06  3992   0.815E-03    0.184E-03
DAV:  11    -0.162376099071E+03   -0.28580E-05   -0.15789E-06  3880   0.724E-03
   6 F= -.16237610E+03 E0= -.16237610E+03  d E =-.118674E+00
       N       E                     dE             d eps       ncg     rms          rms(c)
DAV:   1    -0.162335500698E+03    0.40596E-01   -0.15872E+01  6696   0.185E+01    0.171E+00
DAV:   2    -0.162393536443E+03   -0.58036E-01   -0.10805E+00  6676   0.389E+00    0.151E+00
DAV:   3    -0.162418529193E+03   -0.24993E-01   -0.45346E-01  9696   0.169E+00    0.163E+00
DAV:   4    -0.162390941951E+03    0.27587E-01   -0.51223E-01  8776   0.126E+00    0.797E-01
DAV:   5    -0.162389559496E+03    0.13825E-02   -0.25314E-02  8068   0.536E-01    0.256E-01
DAV:   6    -0.162391182273E+03   -0.16228E-02   -0.51577E-03 10268   0.212E-01    0.140E-01
DAV:   7    -0.162391244785E+03   -0.62512E-04   -0.62174E-04  8292   0.921E-02    0.807E-02
DAV:   8    -0.162391571224E+03   -0.32644E-03   -0.18251E-04  8688   0.521E-02    0.315E-02
DAV:   9    -0.162391334921E+03    0.23630E-03   -0.45968E-05  5992   0.252E-02    0.131E-02
DAV:  10    -0.162391230886E+03    0.10403E-03   -0.99972E-06  4080   0.140E-02    0.617E-03
DAV:  11    -0.162391211953E+03    0.18934E-04   -0.30340E-06  3932   0.101E-02    0.237E-03
DAV:  12    -0.162391208688E+03    0.32646E-05   -0.11116E-06  3904   0.587E-03
   7 F= -.16239121E+03 E0= -.16239121E+03  d E =-.133783E+00
       N       E                     dE             d eps       ncg     rms          rms(c)
DAV:   1    -0.162383411033E+03    0.78009E-02   -0.20406E+00  6604   0.672E+00    0.606E-01
DAV:   2    -0.162401916632E+03   -0.18506E-01   -0.15339E-01  6768   0.145E+00    0.678E-01
DAV:   3    -0.162390892561E+03    0.11024E-01   -0.48002E-02  9220   0.662E-01    0.387E-01
DAV:   4    -0.162394180450E+03   -0.32879E-02   -0.87878E-03  9064   0.328E-01    0.212E-01
DAV:   5    -0.162392744815E+03    0.14356E-02   -0.13584E-03  8284   0.141E-01    0.747E-02
DAV:   6    -0.162392426379E+03    0.31844E-03   -0.37644E-04  9856   0.605E-02    0.527E-02
DAV:   7    -0.162392528257E+03   -0.10188E-03   -0.15658E-04  6488   0.293E-02    0.354E-02
DAV:   8    -0.162392373776E+03    0.15448E-03   -0.15329E-05  4112   0.179E-02    0.144E-02
DAV:   9    -0.162392434951E+03   -0.61175E-04   -0.57651E-06  3968   0.134E-02    0.970E-03
DAV:  10    -0.162392433286E+03    0.16654E-05   -0.76249E-06  3880   0.797E-03
   8 F= -.16239243E+03 E0= -.16239243E+03  d E =-.135008E+00
       N       E                     dE             d eps       ncg     rms          rms(c)
DAV:   1    -0.162416019771E+03   -0.23585E-01   -0.12098E+01  6340   0.130E+01    0.132E+00
DAV:   2    -0.162443851299E+03   -0.27832E-01   -0.56193E-01  7000   0.284E+00    0.110E+00
DAV:   3    -0.162461282294E+03   -0.17431E-01   -0.12885E-01  9864   0.130E+00    0.944E-01
DAV:   4    -0.162442183987E+03    0.19098E-01   -0.74609E-02  8688   0.759E-01    0.453E-01
DAV:   5    -0.162445606349E+03   -0.34224E-02   -0.89300E-03  9440   0.374E-01    0.127E-01
DAV:   6    -0.162444337892E+03    0.12685E-02   -0.13667E-03  9044   0.130E-01    0.792E-02
DAV:   7    -0.162444339255E+03   -0.13631E-05   -0.24084E-04  8608   0.596E-02    0.385E-02
DAV:   8    -0.162444366473E+03   -0.27218E-04   -0.49265E-05  7232   0.297E-02    0.987E-03
DAV:   9    -0.162444403759E+03   -0.37286E-04   -0.68883E-06  4048   0.133E-02    0.544E-03
DAV:  10    -0.162444412755E+03   -0.89958E-05   -0.21358E-06  3952   0.815E-03
   9 F= -.16244441E+03 E0= -.16244441E+03  d E =-.519795E-01
       N       E                     dE             d eps       ncg     rms          rms(c)
DAV:   1    -0.162439420358E+03    0.49834E-02   -0.87130E+00  6340   0.111E+01    0.113E+00
DAV:   2    -0.162457351754E+03   -0.17931E-01   -0.40955E-01  7084   0.245E+00    0.974E-01
DAV:   3    -0.162470533115E+03   -0.13181E-01   -0.91111E-02  9720   0.114E+00    0.766E-01
DAV:   4    -0.162456885658E+03    0.13647E-01   -0.37464E-02  8592   0.614E-01    0.377E-01
DAV:   5    -0.162460240791E+03   -0.33551E-02   -0.67297E-03  9532   0.321E-01    0.112E-01
DAV:   6    -0.162458912718E+03    0.13281E-02   -0.11067E-03  9056   0.121E-01    0.665E-02
DAV:   7    -0.162458814261E+03    0.98457E-04   -0.20833E-04  8340   0.562E-02    0.329E-02
DAV:   8    -0.162458832286E+03   -0.18025E-04   -0.40592E-05  6616   0.279E-02    0.960E-03
DAV:   9    -0.162458895825E+03   -0.63539E-04   -0.79428E-06  4028   0.139E-02    0.443E-03
DAV:  10    -0.162458901286E+03   -0.54610E-05   -0.20995E-06  3864   0.876E-03
  10 F= -.16245890E+03 E0= -.16245890E+03  d E =-.664680E-01
       N       E                     dE             d eps       ncg     rms          rms(c)
DAV:   1    -0.162459063375E+03   -0.16755E-03   -0.21171E-02  6436   0.548E-01    0.563E-02
DAV:   2    -0.162458510542E+03    0.55283E-03   -0.98967E-04  7176   0.120E-01    0.491E-02
DAV:   3    -0.162459314974E+03   -0.80443E-03   -0.26673E-04  8472   0.579E-02    0.385E-02
DAV:   4    -0.162458846304E+03    0.46867E-03   -0.68479E-05  4960   0.315E-02    0.174E-02
DAV:   5    -0.162458934459E+03   -0.88155E-04   -0.98549E-06  3936   0.143E-02    0.476E-03
DAV:   6    -0.162458926452E+03    0.80070E-05   -0.28456E-06  3512   0.898E-03
  11 F= -.16245893E+03 E0= -.16245893E+03  d E =-.664932E-01
       N       E                     dE             d eps       ncg     rms          rms(c)
DAV:   1    -0.162464698201E+03   -0.57637E-02   -0.13035E+00  6744   0.439E+00    0.584E-01
DAV:   2    -0.162466363123E+03   -0.16649E-02   -0.45984E-02  7084   0.947E-01    0.313E-01
DAV:   3    -0.162459800549E+03    0.65626E-02   -0.16313E-02  8372   0.508E-01    0.364E-01
DAV:   4    -0.162462885999E+03   -0.30854E-02   -0.79631E-03  8024   0.374E-01    0.833E-02
DAV:   5    -0.162462365577E+03    0.52042E-03   -0.91166E-04  9004   0.106E-01    0.551E-02
DAV:   6    -0.162462372985E+03   -0.74082E-05   -0.85419E-05  8448   0.298E-02
  12 F= -.16246237E+03 E0= -.16246237E+03  d E =-.344653E-02
       N       E                     dE             d eps       ncg     rms          rms(c)
DAV:   1    -0.162463203941E+03   -0.83836E-03   -0.45866E-01  6780   0.261E+00    0.337E-01
DAV:   2    -0.162463887457E+03   -0.68352E-03   -0.15370E-02  6952   0.555E-01    0.180E-01
DAV:   3    -0.162460434147E+03    0.34533E-02   -0.38093E-03  8464   0.259E-01    0.173E-01
DAV:   4    -0.162462987783E+03   -0.25536E-02   -0.16844E-03  8292   0.205E-01    0.653E-02
DAV:   5    -0.162462361739E+03    0.62604E-03   -0.38419E-04  9200   0.692E-02    0.387E-02
DAV:   6    -0.162462424820E+03   -0.63081E-04   -0.29776E-05  6112   0.188E-02    0.348E-02
DAV:   7    -0.162462399308E+03    0.25513E-04   -0.39931E-05  6012   0.222E-02    0.101E-02
DAV:   8    -0.162462373626E+03    0.25682E-04   -0.10151E-05  4016   0.154E-02    0.446E-03
DAV:   9    -0.162462405006E+03   -0.31380E-04   -0.55456E-06  3668   0.120E-02    0.263E-03
DAV:  10    -0.162462405922E+03   -0.91636E-06   -0.27717E-06  3528   0.892E-03
  13 F= -.16246241E+03 E0= -.16246241E+03  d E =-.347947E-02
       N       E                     dE             d eps       ncg     rms          rms(c)
DAV:   1    -0.162463276704E+03   -0.87170E-03   -0.70274E-01  6524   0.328E+00    0.212E-01
DAV:   2    -0.162463411508E+03   -0.13480E-03   -0.21960E-02  6616   0.573E-01    0.170E-01
DAV:   3    -0.162465298740E+03   -0.18872E-02   -0.15083E-03  9600   0.172E-01    0.127E-01
DAV:   4    -0.162463741529E+03    0.15572E-02   -0.62922E-04  8424   0.106E-01    0.885E-02
DAV:   5    -0.162464690564E+03   -0.94904E-03   -0.56737E-04  8876   0.909E-02    0.349E-02
DAV:   6    -0.162464329095E+03    0.36147E-03   -0.93632E-05  7280   0.356E-02    0.204E-02
DAV:   7    -0.162464299538E+03    0.29558E-04   -0.10140E-05  4116   0.140E-02    0.131E-02
DAV:   8    -0.162464237476E+03    0.62062E-04   -0.55613E-06  3896   0.113E-02    0.351E-03
DAV:   9    -0.162464243479E+03   -0.60030E-05   -0.24904E-06  3480   0.827E-03
  14 F= -.16246424E+03 E0= -.16246424E+03  d E =-.183756E-02
       N       E                     dE             d eps       ncg     rms          rms(c)
DAV:   1    -0.162458029060E+03    0.62084E-02   -0.39089E+00  6520   0.773E+00    0.491E-01
DAV:   2    -0.162464752142E+03   -0.67231E-02   -0.12001E-01  6512   0.134E+00    0.392E-01
DAV:   3    -0.162468410435E+03   -0.36583E-02   -0.97340E-03  9736   0.371E-01    0.293E-01
DAV:   4    -0.162464421925E+03    0.39885E-02   -0.32786E-03  8536   0.253E-01    0.207E-01
DAV:   5    -0.162465469999E+03   -0.10481E-02   -0.21499E-03  8676   0.192E-01    0.576E-02
DAV:   6    -0.162465288936E+03    0.18106E-03   -0.35957E-04  8904   0.659E-02    0.476E-02
DAV:   7    -0.162465296811E+03   -0.78755E-05   -0.22307E-05  5504   0.194E-02
  15 F= -.16246530E+03 E0= -.16246530E+03  d E =-.289089E-02
       N       E                     dE             d eps       ncg     rms          rms(c)
DAV:   1    -0.162464572072E+03    0.71686E-03   -0.34135E-01  6620   0.381E+00    0.178E-01
DAV:   2    -0.162467276384E+03   -0.27043E-02   -0.43471E-02  6780   0.763E-01    0.126E-01
DAV:   3    -0.162469316150E+03   -0.20398E-02   -0.32384E-03  9656   0.201E-01    0.113E-01
DAV:   4    -0.162467618927E+03    0.16972E-02   -0.89545E-04  8096   0.112E-01    0.704E-02
DAV:   5    -0.162468133305E+03   -0.51438E-03   -0.24554E-04  9280   0.621E-02    0.288E-02
DAV:   6    -0.162467993844E+03    0.13946E-03   -0.49550E-05  6940   0.245E-02    0.171E-02
DAV:   7    -0.162468008043E+03   -0.14199E-04   -0.68801E-06  3900   0.129E-02    0.924E-03
DAV:   8    -0.162468023526E+03   -0.15483E-04   -0.30705E-06  3656   0.944E-03    0.240E-03
DAV:   9    -0.162468030067E+03   -0.65409E-05   -0.13391E-06  3488   0.635E-03
  16 F= -.16246803E+03 E0= -.16246803E+03  d E =-.273326E-02
       N       E                     dE             d eps       ncg     rms          rms(c)
DAV:   1    -0.162468212612E+03   -0.18909E-03   -0.66196E-03  6636   0.530E-01    0.253E-02
DAV:   2    -0.162468022776E+03    0.18984E-03   -0.85227E-04  6784   0.107E-01    0.222E-02
DAV:   3    -0.162468412457E+03   -0.38968E-03   -0.84884E-05  6948   0.340E-02    0.169E-02
DAV:   4    -0.162468186080E+03    0.22638E-03   -0.18984E-05  4340   0.190E-02    0.958E-03
DAV:   5    -0.162468230942E+03   -0.44862E-04   -0.47222E-06  3520   0.108E-02    0.374E-03
DAV:   6    -0.162468223945E+03    0.69976E-05   -0.17479E-06  3320   0.716E-03
  17 F= -.16246822E+03 E0= -.16246822E+03  d E =-.292713E-02
       N       E                     dE             d eps       ncg     rms          rms(c)
DAV:   1    -0.162468351084E+03   -0.12014E-03   -0.26426E-02  6652   0.106E+00    0.508E-02
DAV:   2    -0.162468121103E+03    0.22998E-03   -0.34332E-03  6796   0.214E-01    0.442E-02
DAV:   3    -0.162468906956E+03   -0.78585E-03   -0.35031E-04  8808   0.674E-02    0.349E-02
DAV:   4    -0.162468444837E+03    0.46212E-03   -0.73645E-05  5656   0.337E-02    0.188E-02
DAV:   5    -0.162468540984E+03   -0.96146E-04   -0.15107E-05  4484   0.191E-02    0.670E-03
DAV:   6    -0.162468513889E+03    0.27095E-04   -0.51401E-06  3476   0.117E-02    0.436E-03
DAV:   7    -0.162468509705E+03    0.41831E-05   -0.23716E-06  3292   0.734E-03
  18 F= -.16246851E+03 E0= -.16246851E+03  d E =-.321289E-02
       N       E                     dE             d eps       ncg     rms          rms(c)
DAV:   1    -0.162467828520E+03    0.68537E-03   -0.10593E-01  6656   0.212E+00    0.102E-01
DAV:   2    -0.162467929250E+03   -0.10073E-03   -0.13821E-02  6800   0.431E-01    0.891E-02
DAV:   3    -0.162469532942E+03   -0.16037E-02   -0.14170E-03  9240   0.136E-01    0.706E-02
DAV:   4    -0.162468570713E+03    0.96223E-03   -0.30954E-04  7356   0.670E-02    0.374E-02
DAV:   5    -0.162468776799E+03   -0.20609E-03   -0.72089E-05  7712   0.351E-02    0.154E-02
DAV:   6    -0.162468700306E+03    0.76493E-04   -0.12594E-05  4616   0.147E-02    0.942E-03
DAV:   7    -0.162468703977E+03   -0.36714E-05   -0.36582E-06  3624   0.981E-03
  19 F= -.16246870E+03 E0= -.16246870E+03  d E =-.340717E-02
       N       E                     dE             d eps       ncg     rms          rms(c)
DAV:   1    -0.162468017996E+03    0.68231E-03   -0.45718E-02  6660   0.139E+00    0.686E-02
DAV:   2    -0.162469269568E+03   -0.12516E-02   -0.59680E-03  6792   0.283E-01    0.611E-02
DAV:   3    -0.162468182697E+03    0.10869E-02   -0.64639E-04  9144   0.922E-02    0.473E-02
DAV:   4    -0.162468732759E+03   -0.55006E-03   -0.13146E-04  6168   0.443E-02    0.246E-02
DAV:   5    -0.162468599738E+03    0.13302E-03   -0.25423E-05  5184   0.239E-02    0.928E-03
DAV:   6    -0.162468645245E+03   -0.45507E-04   -0.10383E-05  3840   0.134E-02    0.601E-03
DAV:   7    -0.162468656645E+03   -0.11400E-04   -0.21263E-06  3168   0.721E-03    0.354E-03
DAV:   8    -0.162468647091E+03    0.95539E-05   -0.10164E-06  3132   0.536E-03
  20 F= -.16246865E+03 E0= -.16246865E+03  d E =-.335028E-02
       N       E                     dE             d eps       ncg     rms          rms(c)
DAV:   1    -0.162469561858E+03   -0.90521E-03   -0.10946E-01  7104   0.144E+00    0.272E-01
DAV:   2    -0.162469980746E+03   -0.41889E-03   -0.81483E-03  7372   0.391E-01    0.122E-01
DAV:   3    -0.162467347637E+03    0.26331E-02   -0.24261E-03  8720   0.193E-01    0.135E-01
DAV:   4    -0.162469110029E+03   -0.17624E-02   -0.36965E-04  8224   0.149E-01    0.359E-02
DAV:   5    -0.162469111487E+03   -0.14583E-05   -0.11570E-04  8572   0.387E-02    0.302E-02
DAV:   6    -0.162469093520E+03    0.17967E-04   -0.13413E-05  4620   0.146E-02    0.222E-02
DAV:   7    -0.162469098796E+03   -0.52753E-05   -0.30345E-05  5560   0.163E-02
  21 F= -.16246910E+03 E0= -.16246910E+03  d E =-.451705E-03
       N       E                     dE             d eps       ncg     rms          rms(c)
DAV:   1    -0.162469059595E+03    0.33925E-04   -0.14216E-03  7284   0.164E-01    0.309E-02
DAV:   2    -0.162469154797E+03   -0.95202E-04   -0.10498E-04  7008   0.458E-02    0.129E-02
DAV:   3    -0.162468831982E+03    0.32281E-03   -0.36814E-05  4452   0.229E-02    0.184E-02
DAV:   4    -0.162469088727E+03   -0.25674E-03   -0.24000E-05  4372   0.214E-02    0.399E-03
DAV:   5    -0.162469072003E+03    0.16724E-04   -0.36779E-06  3448   0.831E-03    0.377E-03
DAV:   6    -0.162469068111E+03    0.38915E-05   -0.14436E-06  3180   0.642E-03
  22 F= -.16246907E+03 E0= -.16246907E+03  d E =-.421020E-03
       N       E                     dE             d eps       ncg     rms          rms(c)
DAV:   1    -0.162469191087E+03   -0.11908E-03   -0.43126E-02  6408   0.864E-01    0.529E-02
DAV:   2    -0.162468704273E+03    0.48681E-03   -0.16299E-03  7264   0.163E-01    0.494E-02
DAV:   3    -0.162469440368E+03   -0.73610E-03   -0.26651E-04  9148   0.577E-02    0.379E-02
DAV:   4    -0.162469021098E+03    0.41927E-03   -0.56300E-05  4984   0.281E-02    0.249E-02
DAV:   5    -0.162469079187E+03   -0.58089E-04   -0.17449E-05  4512   0.209E-02    0.584E-03
DAV:   6    -0.162469064099E+03    0.15088E-04   -0.51079E-06  3876   0.116E-02    0.357E-03
DAV:   7    -0.162469060038E+03    0.40610E-05   -0.18766E-06  3536   0.709E-03
  23 F= -.16246906E+03 E0= -.16246906E+03  d E =0.807320E-05
       N       E                     dE             d eps       ncg     rms          rms(c)
DAV:   1    -0.162468885400E+03    0.17870E-03   -0.13698E-01  6400   0.154E+00    0.934E-02
DAV:   2    -0.162468250364E+03    0.63504E-03   -0.50151E-03  7248   0.287E-01    0.784E-02
DAV:   3    -0.162469099641E+03   -0.84928E-03   -0.22727E-04  9812   0.856E-02    0.533E-02
DAV:   4    -0.162468552472E+03    0.54717E-03   -0.12087E-04  6576   0.406E-02    0.443E-02
DAV:   5    -0.162469265530E+03   -0.71306E-03   -0.17129E-04  7060   0.509E-02    0.258E-02
DAV:   6    -0.162468957777E+03    0.30775E-03   -0.40942E-05  4564   0.254E-02    0.101E-02
DAV:   7    -0.162468863904E+03    0.93873E-04   -0.95144E-06  4072   0.136E-02    0.479E-03
DAV:   8    -0.162468815364E+03    0.48541E-04   -0.38769E-06  3772   0.105E-02    0.234E-03
DAV:   9    -0.162468830584E+03   -0.15221E-04   -0.17453E-06  3468   0.699E-03    0.117E-03
DAV:  10    -0.162468837701E+03   -0.71164E-05   -0.91169E-07  3368   0.500E-03
  24 F= -.16246884E+03 E0= -.16246884E+03  d E =0.230411E-03
       N       E                     dE             d eps       ncg     rms          rms(c)
DAV:   1    -0.162469140425E+03   -0.30984E-03   -0.64068E-02  6392   0.114E+00    0.625E-02
DAV:   2    -0.162468832381E+03    0.30804E-03   -0.27677E-03  6364   0.215E-01    0.554E-02
DAV:   3    -0.162469595834E+03   -0.76345E-03   -0.31995E-04  9772   0.672E-02    0.394E-02
DAV:   4    -0.162469037503E+03    0.55833E-03   -0.98742E-05  5804   0.377E-02    0.276E-02
DAV:   5    -0.162469204717E+03   -0.16721E-03   -0.23407E-05  4824   0.229E-02    0.650E-03
DAV:   6    -0.162469184963E+03    0.19754E-04   -0.53304E-06  3932   0.112E-02    0.282E-03
DAV:   7    -0.162469179783E+03    0.51803E-05   -0.15446E-06  3524   0.694E-03
  25 F= -.16246918E+03 E0= -.16246918E+03  d E =-.342082E-03
       N       E                     dE             d eps       ncg     rms          rms(c)
DAV:   1    -0.162469210331E+03   -0.25368E-04   -0.22508E-04  6576   0.685E-02    0.429E-03
DAV:   2    -0.162469188919E+03    0.21412E-04   -0.96732E-06  4080   0.142E-02    0.307E-03
DAV:   3    -0.162469231143E+03   -0.42224E-04   -0.18299E-06  3264   0.772E-03    0.226E-03
DAV:   4    -0.162469191475E+03    0.39668E-04   -0.96948E-07  3180   0.486E-03    0.174E-03
DAV:   5    -0.162469207895E+03   -0.16420E-04   -0.37229E-07  3172   0.317E-03    0.661E-04
DAV:   6    -0.162469205007E+03    0.28880E-05   -0.18595E-07  3140   0.211E-03
  26 F= -.16246921E+03 E0= -.16246921E+03  d E =-.367306E-03
       N       E                     dE             d eps       ncg     rms          rms(c)
DAV:   1    -0.162469256054E+03   -0.48159E-04   -0.89081E-04  6400   0.135E-01    0.721E-03
DAV:   2    -0.162469194499E+03    0.61555E-04   -0.38177E-05  5824   0.255E-02    0.640E-03
DAV:   3    -0.162469284814E+03   -0.90315E-04   -0.42566E-06  3384   0.961E-03    0.453E-03
DAV:   4    -0.162469222615E+03    0.62198E-04   -0.18246E-06  3160   0.661E-03    0.317E-03
DAV:   5    -0.162469238344E+03   -0.15728E-04   -0.66115E-07  3112   0.396E-03    0.919E-04
DAV:   6    -0.162469239863E+03   -0.15192E-05   -0.30829E-07  3084   0.288E-03
  27 F= -.16246924E+03 E0= -.16246924E+03  d E =-.402162E-03
       N       E                     dE             d eps       ncg     rms          rms(c)
DAV:   1    -0.162469331496E+03   -0.93153E-04   -0.35633E-03  6400   0.270E-01    0.146E-02
DAV:   2    -0.162469214770E+03    0.11673E-03   -0.15684E-04  6520   0.509E-02    0.131E-02
DAV:   3    -0.162469394117E+03   -0.17935E-03   -0.14328E-05  4424   0.161E-02    0.914E-03
DAV:   4    -0.162469267214E+03    0.12690E-03   -0.63597E-06  3756   0.120E-02    0.641E-03
DAV:   5    -0.162469303904E+03   -0.36690E-04   -0.22052E-06  3304   0.685E-03    0.191E-03
DAV:   6    -0.162469303483E+03    0.42114E-06   -0.92662E-07  3156   0.506E-03
  28 F= -.16246930E+03 E0= -.16246930E+03  d E =-.465782E-03
       N       E                     dE             d eps       ncg     rms          rms(c)
DAV:   1    -0.162469445826E+03   -0.14192E-03   -0.14249E-02  6408   0.539E-01    0.293E-02
DAV:   2    -0.162469241416E+03    0.20441E-03   -0.62586E-04  6480   0.102E-01    0.260E-02
DAV:   3    -0.162469599510E+03   -0.35809E-03   -0.65116E-05  6948   0.321E-02    0.190E-02
DAV:   4    -0.162469360116E+03    0.23939E-03   -0.21238E-05  4260   0.203E-02    0.135E-02
DAV:   5    -0.162469452900E+03   -0.92784E-04   -0.63452E-06  3744   0.130E-02    0.456E-03
DAV:   6    -0.162469425721E+03    0.27180E-04   -0.29175E-06  3448   0.854E-03    0.240E-03
DAV:   7    -0.162469420958E+03    0.47627E-05   -0.11090E-06  3268   0.546E-03
  29 F= -.16246942E+03 E0= -.16246942E+03  d E =-.583257E-03
       N       E                     dE             d eps       ncg     rms          rms(c)
DAV:   1    -0.162469626770E+03   -0.20105E-03   -0.21766E-02  6244   0.685E-01    0.438E-02
DAV:   2    -0.162469389284E+03    0.23749E-03   -0.20324E-03  7180   0.170E-01    0.398E-02
DAV:   3    -0.162470005891E+03   -0.61661E-03   -0.18599E-04  7784   0.537E-02    0.296E-02
DAV:   4    -0.162469610742E+03    0.39515E-03   -0.51149E-05  5048   0.304E-02    0.199E-02
DAV:   5    -0.162469670986E+03   -0.60244E-04   -0.27036E-05  5384   0.225E-02    0.800E-03
DAV:   6    -0.162469693904E+03   -0.22918E-04   -0.42389E-06  3652   0.132E-02    0.406E-03
DAV:   7    -0.162469697388E+03   -0.34846E-05   -0.27904E-06  3436   0.824E-03
  30 F= -.16246970E+03 E0= -.16246970E+03  d E =-.276430E-03
       N       E                     dE             d eps       ncg     rms          rms(c)
DAV:   1    -0.162469693503E+03    0.40034E-06   -0.11162E-05  4256   0.169E-02    0.194E-03
DAV:   2    -0.162469699861E+03   -0.63573E-05   -0.19363E-06  3148   0.806E-03
  31 F= -.16246970E+03 E0= -.16246970E+03  d E =-.278903E-03
       N       E                     dE             d eps       ncg     rms          rms(c)
DAV:   1    -0.162469614746E+03    0.78757E-04   -0.88660E-04  6244   0.138E-01    0.916E-03
DAV:   2    -0.162469751049E+03   -0.13630E-03   -0.82413E-05  5916   0.350E-02    0.990E-03
DAV:   3    -0.162469596405E+03    0.15464E-03   -0.99237E-06  4028   0.141E-02    0.599E-03
DAV:   4    -0.162469660432E+03   -0.64027E-04   -0.20881E-06  3124   0.788E-03    0.361E-03
DAV:   5    -0.162469647423E+03    0.13009E-04   -0.11801E-06  3048   0.504E-03    0.170E-03
DAV:   6    -0.162469644596E+03    0.28277E-05   -0.36467E-07  3048   0.359E-03
  32 F= -.16246964E+03 E0= -.16246964E+03  d E =-.223638E-03
