       N       E                     dE             d eps       ncg     rms          rms(c)
DAV:   1     0.203537436771E+04    0.20354E+04   -0.81009E+04  1920   0.177E+03
DAV:   2     0.182178945831E+03   -0.18532E+04   -0.17681E+04  2032   0.547E+02
DAV:   3    -0.172351422360E+03   -0.35453E+03   -0.34612E+03  2528   0.223E+02
DAV:   4    -0.196663770397E+03   -0.24312E+02   -0.24196E+02  2936   0.622E+01
DAV:   5    -0.198280078847E+03   -0.16163E+01   -0.16145E+01  3328   0.130E+01    0.493E+01
DAV:   6    -0.161040198137E+03    0.37240E+02   -0.22392E+02  2808   0.680E+01    0.304E+01
DAV:   7    -0.161665795508E+03   -0.62560E+00   -0.33489E+01  2696   0.240E+01    0.198E+01
DAV:   8    -0.161710491336E+03   -0.44696E-01   -0.69467E+00  2888   0.128E+01    0.623E+00
DAV:   9    -0.161489591332E+03    0.22090E+00   -0.13652E+00  2752   0.610E+00    0.176E+00
DAV:  10    -0.161477952579E+03    0.11639E-01   -0.21130E-01  3080   0.207E+00    0.848E-01
DAV:  11    -0.161482636287E+03   -0.46837E-02   -0.37351E-02  2952   0.993E-01    0.344E-01
DAV:  12    -0.161482209348E+03    0.42694E-03   -0.87939E-03  2720   0.546E-01    0.162E-01
DAV:  13    -0.161482298241E+03   -0.88893E-04   -0.25534E-03  2808   0.203E-01    0.955E-02
DAV:  14    -0.161482235452E+03    0.62789E-04   -0.60927E-04  2600   0.110E-01    0.248E-02
DAV:  15    -0.161482236864E+03   -0.14118E-05   -0.54235E-05  2096   0.294E-02
   1 F= -.16148224E+03 E0= -.16148224E+03  d E =-.161482E+03
       N       E                     dE             d eps       ncg     rms          rms(c)
DAV:   1    -0.163831128728E+03   -0.23489E+01   -0.76470E+01  2448   0.452E+01    0.130E+01
DAV:   2    -0.161912035964E+03    0.19191E+01   -0.91684E+00  2536   0.144E+01    0.517E+00
DAV:   3    -0.161509388930E+03    0.40265E+00   -0.23965E+00  2640   0.590E+00    0.295E+00
DAV:   4    -0.161440655071E+03    0.68734E-01   -0.54633E-01  2920   0.341E+00    0.191E+00
DAV:   5    -0.161450266827E+03   -0.96118E-02   -0.90000E-02  2856   0.132E+00    0.150E+00
DAV:   6    -0.161465263155E+03   -0.14996E-01   -0.46970E-02  3296   0.543E-01    0.935E-01
DAV:   7    -0.161472327187E+03   -0.70640E-02   -0.26921E-02  2576   0.497E-01    0.190E-01
DAV:   8    -0.161472081936E+03    0.24525E-03   -0.57390E-03  2872   0.241E-01    0.124E-01
DAV:   9    -0.161472349249E+03   -0.26731E-03   -0.63004E-04  2664   0.993E-02    0.426E-02
DAV:  10    -0.161472361176E+03   -0.11927E-04   -0.13693E-04  2600   0.358E-02    0.244E-02
DAV:  11    -0.161472367202E+03   -0.60256E-05   -0.45686E-05  1824   0.284E-02
   2 F= -.16147237E+03 E0= -.16147237E+03  d E =0.986966E-02
       N       E                     dE             d eps       ncg     rms          rms(c)
DAV:   1    -0.162220260812E+03   -0.74790E+00   -0.20694E+01  2352   0.230E+01    0.692E+00
DAV:   2    -0.161672548364E+03    0.54771E+00   -0.23787E+00  2384   0.692E+00    0.260E+00
DAV:   3    -0.161558398762E+03    0.11415E+00   -0.52841E-01  2400   0.283E+00    0.985E-01
DAV:   4    -0.161556516173E+03    0.18826E-02   -0.12180E-01  2992   0.118E+00    0.730E-01
DAV:   5    -0.161559001244E+03   -0.24851E-02   -0.14971E-02  2752   0.614E-01    0.519E-01
DAV:   6    -0.161563080131E+03   -0.40789E-02   -0.84270E-03  3320   0.237E-01    0.397E-01
DAV:   7    -0.161565397195E+03   -0.23171E-02   -0.49836E-03  2800   0.218E-01    0.108E-01
DAV:   8    -0.161565627005E+03   -0.22981E-03   -0.15830E-03  3056   0.101E-01    0.410E-02
DAV:   9    -0.161565650659E+03   -0.23654E-04   -0.19641E-04  2440   0.437E-02    0.196E-02
DAV:  10    -0.161565647528E+03    0.31313E-05   -0.12186E-05  1320   0.142E-02
   3 F= -.16156565E+03 E0= -.16156565E+03  d E =-.834107E-01
       N       E                     dE             d eps       ncg     rms          rms(c)
DAV:   1    -0.161565694137E+03   -0.43478E-04   -0.12445E-03  2488   0.180E-01    0.535E-02
DAV:   2    -0.161565661629E+03    0.32508E-04   -0.12667E-04  2320   0.547E-02    0.214E-02
DAV:   3    -0.161565651957E+03    0.96719E-05   -0.33124E-05  1552   0.234E-02
   4 F= -.16156565E+03 E0= -.16156565E+03  d E =-.834151E-01
       N       E                     dE             d eps       ncg     rms          rms(c)
DAV:   1    -0.161565659814E+03    0.18151E-05   -0.38064E-04  2472   0.101E-01    0.283E-02
DAV:   2    -0.161565650510E+03    0.93034E-05   -0.29931E-05  1480   0.292E-02
   5 F= -.16156565E+03 E0= -.16156565E+03  d E =-.834136E-01
       N       E                     dE             d eps       ncg     rms          rms(c)
DAV:   1    -0.161681158842E+03   -0.11550E+00   -0.43672E+00  2368   0.107E+01    0.318E+00
DAV:   2    -0.161567888368E+03    0.11327E+00   -0.50428E-01  2440   0.325E+00    0.122E+00
DAV:   3    -0.161543344642E+03    0.24544E-01   -0.11554E-01  2464   0.132E+00    0.485E-01
DAV:   4    -0.161542812502E+03    0.53214E-03   -0.26140E-02  3000   0.570E-01    0.363E-01
DAV:   5    -0.161543344033E+03   -0.53153E-03   -0.32649E-03  2768   0.283E-01    0.265E-01
DAV:   6    -0.161544292871E+03   -0.94884E-03   -0.20116E-03  3240   0.113E-01    0.188E-01
DAV:   7    -0.161544788538E+03   -0.49567E-03   -0.10829E-03  2648   0.104E-01    0.409E-02
DAV:   8    -0.161544820732E+03   -0.32194E-04   -0.28535E-04  2696   0.446E-02    0.203E-02
DAV:   9    -0.161544831991E+03   -0.11259E-04   -0.29579E-05  1680   0.194E-02    0.638E-03
DAV:  10    -0.161544831711E+03    0.27919E-06   -0.34854E-06  1200   0.931E-03
   6 F= -.16154483E+03 E0= -.16154483E+03  d E =-.625948E-01
       N       E                     dE             d eps       ncg     rms          rms(c)
DAV:   1    -0.161695820992E+03   -0.15099E+00   -0.41779E+00  2400   0.105E+01    0.307E+00
DAV:   2    -0.161588876954E+03    0.10694E+00   -0.49393E-01  2488   0.320E+00    0.120E+00
DAV:   3    -0.161565495862E+03    0.23381E-01   -0.11126E-01  2536   0.128E+00    0.540E-01
DAV:   4    -0.161563982880E+03    0.15130E-02   -0.25426E-02  3024   0.627E-01    0.389E-01
DAV:   5    -0.161564452427E+03   -0.46955E-03   -0.35086E-03  2824   0.283E-01    0.290E-01
DAV:   6    -0.161565268415E+03   -0.81599E-03   -0.21511E-03  3256   0.117E-01    0.195E-01
DAV:   7    -0.161565624350E+03   -0.35594E-03   -0.11687E-03  2576   0.105E-01    0.381E-02
DAV:   8    -0.161565624446E+03   -0.95975E-07   -0.26590E-04  2544   0.472E-02    0.246E-02
DAV:   9    -0.161565627283E+03   -0.28371E-05   -0.23972E-05  1552   0.204E-02
   7 F= -.16156563E+03 E0= -.16156563E+03  d E =-.833904E-01
       N       E                     dE             d eps       ncg     rms          rms(c)
DAV:   1    -0.161565668347E+03   -0.43901E-04   -0.77894E-04  2448   0.143E-01    0.406E-02
DAV:   2    -0.161565647535E+03    0.20812E-04   -0.73992E-05  1984   0.437E-02    0.164E-02
DAV:   3    -0.161565645182E+03    0.23530E-05   -0.24234E-05  1312   0.215E-02
   8 F= -.16156565E+03 E0= -.16156565E+03  d E =-.834083E-01
       N       E                     dE             d eps       ncg     rms          rms(c)
DAV:   1    -0.161565651469E+03   -0.39339E-05   -0.87793E-05  2064   0.499E-02    0.129E-02
DAV:   2    -0.161565648349E+03    0.31197E-05   -0.63813E-06  1120   0.157E-02
   9 F= -.16156565E+03 E0= -.16156565E+03  d E =-.834115E-01
       N       E                     dE             d eps       ncg     rms          rms(c)
DAV:   1    -0.161565650367E+03    0.11011E-05   -0.94020E-06  1056   0.216E-02    0.773E-03
DAV:   2    -0.161565649011E+03    0.13569E-05   -0.20815E-06  1032   0.112E-02
  10 F= -.16156565E+03 E0= -.16156565E+03  d E =-.834121E-01
       N       E                     dE             d eps       ncg     rms          rms(c)
DAV:   1    -0.161565649533E+03    0.83477E-06   -0.18026E-06  1032   0.943E-03    0.403E-03
DAV:   2    -0.161565648983E+03    0.54997E-06   -0.71285E-07  1032   0.557E-03
  11 F= -.16156565E+03 E0= -.16156565E+03  d E =-.834121E-01
       N       E                     dE             d eps       ncg     rms          rms(c)
DAV:   1    -0.161565649192E+03    0.34103E-06   -0.71133E-07  1008   0.575E-03    0.223E-03
DAV:   2    -0.161565648897E+03    0.29426E-06   -0.32884E-07  1008   0.342E-03
  12 F= -.16156565E+03 E0= -.16156565E+03  d E =-.834120E-01
       N       E                     dE             d eps       ncg     rms          rms(c)
DAV:   1    -0.161565648985E+03    0.20613E-06   -0.30453E-07  1008   0.345E-03    0.127E-03
DAV:   2    -0.161565648824E+03    0.16142E-06   -0.16725E-07  1008   0.209E-03
  13 F= -.16156565E+03 E0= -.16156565E+03  d E =-.834120E-01
       N       E                     dE             d eps       ncg     rms          rms(c)
DAV:   1    -0.161565648851E+03    0.13409E-06   -0.13792E-07  1008   0.211E-03    0.803E-04
DAV:   2    -0.161565648749E+03    0.10237E-06   -0.85405E-08  1008   0.135E-03
  14 F= -.16156565E+03 E0= -.16156565E+03  d E =-.834119E-01
       N       E                     dE             d eps       ncg     rms          rms(c)
DAV:   1    -0.161565648757E+03    0.94447E-07   -0.65273E-08  1008   0.137E-03    0.553E-04
DAV:   2    -0.161565648684E+03    0.72767E-07   -0.43334E-08  1008   0.904E-04
  15 F= -.16156565E+03 E0= -.16156565E+03  d E =-.834118E-01
       N       E                     dE             d eps       ncg     rms          rms(c)
DAV:   1    -0.161565648686E+03    0.71175E-07   -0.31640E-08  1008   0.916E-04    0.409E-04
DAV:   2    -0.161565648631E+03    0.54304E-07   -0.21852E-08  1008   0.619E-04
  16 F= -.16156565E+03 E0= -.16156565E+03  d E =-.834118E-01
       N       E                     dE             d eps       ncg     rms          rms(c)
DAV:   1    -0.161565648630E+03    0.56199E-07   -0.15767E-08  1008   0.615E-04    0.310E-04
DAV:   2    -0.161565648591E+03    0.38630E-07   -0.11206E-08  1008   0.431E-04
  17 F= -.16156565E+03 E0= -.16156565E+03  d E =-.834117E-01
       N       E                     dE             d eps       ncg     rms          rms(c)
DAV:   1    -0.161565648589E+03    0.40996E-07   -0.81062E-09  1008   0.416E-04    0.232E-04
DAV:   2    -0.161565648560E+03    0.28429E-07   -0.59008E-09  1008   0.307E-04
  18 F= -.16156565E+03 E0= -.16156565E+03  d E =-.834117E-01
       N       E                     dE             d eps       ncg     rms          rms(c)
DAV:   1    -0.161565648558E+03    0.30490E-07   -0.42681E-09  1008   0.290E-04    0.170E-04
DAV:   2    -0.161565648539E+03    0.19045E-07   -0.31428E-09  1008   0.222E-04
  19 F= -.16156565E+03 E0= -.16156565E+03  d E =-.834117E-01
       N       E                     dE             d eps       ncg     rms          rms(c)
DAV:   1    -0.162030396266E+03   -0.46475E+00   -0.17603E+01  2368   0.214E+01    0.645E+00
DAV:   2    -0.161574743500E+03    0.45565E+00   -0.20007E+00  2424   0.645E+00    0.247E+00
DAV:   3    -0.161474731180E+03    0.10001E+00   -0.45537E-01  2384   0.266E+00    0.933E-01
DAV:   4    -0.161474506589E+03    0.22459E-03   -0.10293E-01  2968   0.105E+00    0.686E-01
DAV:   5    -0.161476758190E+03   -0.22516E-02   -0.11556E-02  2808   0.554E-01    0.487E-01
DAV:   6    -0.161480378096E+03   -0.36199E-02   -0.73376E-03  3296   0.220E-01    0.359E-01
DAV:   7    -0.161482211137E+03   -0.18330E-02   -0.40470E-03  2920   0.199E-01    0.938E-02
DAV:   8    -0.161482370358E+03   -0.15922E-03   -0.11197E-03  2992   0.871E-02    0.391E-02
DAV:   9    -0.161482388536E+03   -0.18178E-04   -0.14774E-04  2336   0.382E-02    0.147E-02
DAV:  10    -0.161482386174E+03    0.23622E-05   -0.89034E-06  1208   0.129E-02
  20 F= -.16148239E+03 E0= -.16148239E+03  d E =-.149310E-03
