<?xml version="1.0" encoding="ISO-8859-1"?>
<modeling>
 <generator>
  <i name="program" type="string">vasp </i>
  <i name="version" type="string">5.4.4.18Apr17-6-g9f103f2a35  </i>
  <i name="subversion" type="string">(build Oct 23 2017 21:22:35) complex            parallel </i>
  <i name="platform" type="string">LinuxIFC </i>
  <i name="date" type="string">2017 12 27 </i>
  <i name="time" type="string">08:40:43 </i>
 </generator>
 <incar>
  <i type="string" name="PREC">accurate</i>
  <i type="int" name="IBRION">    -1</i>
  <i name="EDIFF">      0.00001000</i>
  <i name="EDIFFG">     -0.01000000</i>
  <i type="int" name="ISIF">     2</i>
  <i name="ENCUT">    500.00000000</i>
  <i type="int" name="ISMEAR">    -5</i>
  <v type="int" name="KPOINT_BSE">    -1     0     0     0</v>
 </incar>
 <structure name="primitive_cell" >
  <crystal>
   <varray name="basis" >
    <v>       3.97151351       3.97151351      -3.97151351 </v>
    <v>       3.97151351      -3.97151351       3.97151351 </v>
    <v>      -3.97151351      -3.97151351      -3.97151351 </v>
   </varray>
   <i name="volume">    250.56945215 </i>
   <varray name="rec_basis" >
    <v>       0.12589659       0.00000000      -0.12589659 </v>
    <v>       0.12589659      -0.12589659       0.00000000 </v>
    <v>       0.00000000      -0.12589659      -0.12589659 </v>
   </varray>
  </crystal>
  <varray name="positions" >
   <v>      -0.50000000       0.00000000       0.00000000 </v>
   <v>      -0.50000000      -0.25059717      -0.25059717 </v>
   <v>      -0.50000000       0.25059717       0.25059717 </v>
   <v>      -0.24940283       0.25059717       0.00000000 </v>
   <v>       0.24940283       0.00000000      -0.25059717 </v>
   <v>       0.24940283      -0.25059717       0.00000000 </v>
   <v>      -0.24940283       0.00000000       0.25059717 </v>
   <v>      -0.50000000       0.00000000      -0.50000000 </v>
   <v>       0.00000000      -0.50000000      -0.50000000 </v>
   <v>       0.00000000       0.00000000       0.00000000 </v>
   <v>      -0.50000000      -0.50000000       0.00000000 </v>
   <v>      -0.50000000      -0.50000000      -0.50000000 </v>
   <v>       0.00000000      -0.50000000       0.00000000 </v>
   <v>       0.00000000       0.00000000      -0.50000000 </v>
   <v>       0.25000000       0.25000000      -0.50000000 </v>
   <v>      -0.25000000      -0.25000000      -0.50000000 </v>
   <v>       0.00000000       0.25000000      -0.25000000 </v>
   <v>      -0.25000000      -0.50000000      -0.25000000 </v>
   <v>       0.00000000      -0.25000000       0.25000000 </v>
   <v>       0.25000000      -0.50000000       0.25000000 </v>
  </varray>
 </structure>
 <varray name="primitive_index" >
  <v type="int" >        1 </v>
  <v type="int" >        3 </v>
  <v type="int" >       12 </v>
  <v type="int" >        2 </v>
  <v type="int" >        4 </v>
  <v type="int" >        5 </v>
  <v type="int" >       10 </v>
  <v type="int" >       14 </v>
  <v type="int" >       15 </v>
  <v type="int" >       16 </v>
  <v type="int" >       17 </v>
  <v type="int" >       20 </v>
  <v type="int" >       18 </v>
  <v type="int" >       19 </v>
  <v type="int" >        8 </v>
  <v type="int" >       11 </v>
  <v type="int" >        6 </v>
  <v type="int" >        7 </v>
  <v type="int" >        9 </v>
  <v type="int" >       13 </v>
 </varray>
 <kpoints>
  <generation param="Gamma">
   <v type="int" name="divisions">       5        5        5 </v>
   <v name="usershift">      0.00000000       0.00000000       0.00000000 </v>
   <v name="genvec1">      0.20000000       0.00000000       0.00000000 </v>
   <v name="genvec2">      0.00000000       0.20000000      -0.00000000 </v>
   <v name="genvec3">      0.00000000      -0.00000000       0.20000000 </v>
   <v name="shift">      0.00000000       0.00000000       0.00000000 </v>
  </generation>
  <varray name="kpointlist" >
   <v>       0.00000000       0.00000000       0.00000000 </v>
   <v>       0.20000000       0.00000000       0.00000000 </v>
   <v>       0.40000000       0.00000000       0.00000000 </v>
   <v>       0.20000000       0.20000000       0.00000000 </v>
   <v>       0.40000000       0.20000000       0.00000000 </v>
   <v>       0.20000000       0.20000000       0.20000000 </v>
   <v>      -0.20000000       0.20000000       0.20000000 </v>
   <v>      -0.40000000       0.40000000       0.20000000 </v>
   <v>      -0.40000000      -0.40000000       0.20000000 </v>
   <v>      -0.40000000       0.40000000       0.40000000 </v>
  </varray>
  <varray name="weights" >
   <v>       0.00800000 </v>
   <v>       0.09600000 </v>
   <v>       0.09600000 </v>
   <v>       0.19200000 </v>
   <v>       0.19200000 </v>
   <v>       0.06400000 </v>
   <v>       0.04800000 </v>
   <v>       0.19200000 </v>
   <v>       0.06400000 </v>
   <v>       0.04800000 </v>
  </varray>
  <varray name="tetrahedronlist"  type="int" >
   <v type="int" >       12        2        2        4        4 </v>
   <v type="int" >        4        1        2        2        4 </v>
   <v type="int" >        4        2        4        4        6 </v>
   <v type="int" >       12        3        4        5        6 </v>
   <v type="int" >        4        2        3        4        6 </v>
   <v type="int" >        4        3        5        6        6 </v>
   <v type="int" >        4        3        3        5        6 </v>
   <v type="int" >        8        3        4        4        6 </v>
   <v type="int" >       12        2        3        4        4 </v>
   <v type="int" >       12        2        2        4        7 </v>
   <v type="int" >        8        1        2        2        7 </v>
   <v type="int" >        4        1        2        4        7 </v>
   <v type="int" >       16        3        4        5        5 </v>
   <v type="int" >        4        2        3        4        5 </v>
   <v type="int" >        4        2        4        4        5 </v>
   <v type="int" >       28        4        5        5        6 </v>
   <v type="int" >        8        4        5        6        6 </v>
   <v type="int" >       12        4        4        5        6 </v>
   <v type="int" >        8        5        5        5        6 </v>
   <v type="int" >       16        5        5        6        6 </v>
   <v type="int" >        8        5        6        6        6 </v>
   <v type="int" >        4        4        5        5        5 </v>
   <v type="int" >       24        3        4        5        8 </v>
   <v type="int" >        8        4        4        5        8 </v>
   <v type="int" >       12        2        3        4        8 </v>
   <v type="int" >        4        2        4        4        8 </v>
   <v type="int" >        4        2        4        8        8 </v>
   <v type="int" >        4        2        7        8        8 </v>
   <v type="int" >        8        2        4        7        8 </v>
   <v type="int" >        4        2        2        4        8 </v>
   <v type="int" >        4        2        2        7        8 </v>
   <v type="int" >        4        2        3        5        8 </v>
   <v type="int" >        4        2        4        5        8 </v>
   <v type="int" >       12        3        4        4        5 </v>
   <v type="int" >        4        3        3        4        5 </v>
   <v type="int" >        4        4        4        4        5 </v>
   <v type="int" >        4        4        4        5        5 </v>
   <v type="int" >       16        4        5        5        8 </v>
   <v type="int" >       12        3        3        5        8 </v>
   <v type="int" >       12        3        5        5        8 </v>
   <v type="int" >        4        3        5        8        9 </v>
   <v type="int" >        4        3        8        8        9 </v>
   <v type="int" >       12        3        5        8        8 </v>
   <v type="int" >        8        4        5        5        9 </v>
   <v type="int" >        4        3        4        5        9 </v>
   <v type="int" >        4        3        4        8        9 </v>
   <v type="int" >       12        4        5        8        9 </v>
   <v type="int" >        8        4        8        8        9 </v>
   <v type="int" >        4        3        4        8        8 </v>
   <v type="int" >        4        3        3        4        8 </v>
   <v type="int" >        8        2        2        2        4 </v>
   <v type="int" >        4        2        2        3        4 </v>
   <v type="int" >       12        2        4        4        7 </v>
   <v type="int" >        8        2        4        4        4 </v>
   <v type="int" >       16        2        3        4        7 </v>
   <v type="int" >        4        3        4        4        7 </v>
   <v type="int" >       12        3        4        7        8 </v>
   <v type="int" >        4        3        7        8        8 </v>
   <v type="int" >        6        5        5        8        8 </v>
   <v type="int" >       16        5        8        8        9 </v>
   <v type="int" >        4        5        5        5        8 </v>
   <v type="int" >       16        5        5        8        9 </v>
   <v type="int" >        4        4        5        7        8 </v>
   <v type="int" >        4        5        7        8        8 </v>
   <v type="int" >        4        3        4        5        7 </v>
   <v type="int" >        4        3        5        7        8 </v>
   <v type="int" >        4        2        2        3        7 </v>
   <v type="int" >        8        1        2        2        2 </v>
   <v type="int" >        4        2        2        2        2 </v>
   <v type="int" >        4        2        2        2        7 </v>
   <v type="int" >        8        4        4        7        8 </v>
   <v type="int" >        2        3        3        5        5 </v>
   <v type="int" >        4        5        5        6        9 </v>
   <v type="int" >        4        4        5        6        9 </v>
   <v type="int" >        4        4        8        9       10 </v>
   <v type="int" >        4        7        8        8       10 </v>
   <v type="int" >        4        4        7        8       10 </v>
   <v type="int" >        4        7        8        9       10 </v>
   <v type="int" >        4        4        7        8        9 </v>
   <v type="int" >        8        3        5        5        6 </v>
   <v type="int" >        4        3        4        6        8 </v>
   <v type="int" >        4        3        5        6        8 </v>
   <v type="int" >        8        4        5        8        8 </v>
   <v type="int" >        4        4        5        6        8 </v>
   <v type="int" >        4        5        5        6        8 </v>
   <v type="int" >        8        5        8        8       10 </v>
   <v type="int" >        8        5        8        9       10 </v>
   <v type="int" >       20        8        8        9       10 </v>
   <v type="int" >       12        8        9       10       10 </v>
   <v type="int" >        4        8       10       10       10 </v>
   <v type="int" >        4        8        8       10       10 </v>
   <v type="int" >        8        8        8        8       10 </v>
   <v type="int" >        4        5        8        8        8 </v>
   <v type="int" >        4        3        4        4        4 </v>
   <v type="int" >        4        4        4        8        8 </v>
   <v type="int" >        4        3        4        4        8 </v>
   <v type="int" >        4        7        8        8        8 </v>
   <v type="int" >        4        4        7        8        8 </v>
   <v type="int" >        4        4        8        8        8 </v>
   <v type="int" >        4        8        8        8        9 </v>
   <v type="int" >        6        8        8        9        9 </v>
   <v type="int" >        8        8        9        9       10 </v>
   <v type="int" >        6        9        9       10       10 </v>
   <v type="int" >        4        3        5        5        5 </v>
   <v type="int" >        4        5        8        9        9 </v>
   <v type="int" >        2       10       10       10       10 </v>
   <v type="int" >        4        9       10       10       10 </v>
  </varray>
  <i name="volumeweight">      0.00133333 </i>
 </kpoints>
 <parameters>
  <separator name="general" >
   <i type="string" name="SYSTEM">unknown system</i>
   <i type="logical" name="LCOMPAT"> F  </i>
  </separator>
  <separator name="electronic" >
   <i type="string" name="PREC">accura</i>
   <i name="ENMAX">    500.00000000</i>
   <i name="ENAUG">    605.39200000</i>
   <i name="EDIFF">      0.00001000</i>
   <i type="int" name="IALGO">    38</i>
   <i type="int" name="IWAVPR">    10</i>
   <i type="int" name="NBANDS">    96</i>
   <i name="NELECT">    161.00000000</i>
   <i type="int" name="TURBO">     0</i>
   <i type="int" name="IRESTART">     0</i>
   <i type="int" name="NREBOOT">     0</i>
   <i type="int" name="NMIN">     0</i>
   <i name="EREF">      0.00000000</i>
   <separator name="electronic smearing" >
    <i type="int" name="ISMEAR">    -5</i>
    <i name="SIGMA">      0.20000000</i>
    <i name="KSPACING">      0.50000000</i>
    <i type="logical" name="KGAMMA"> T  </i>
   </separator>
   <separator name="electronic projectors" >
    <i type="logical" name="LREAL"> F  </i>
    <v name="ROPT">      0.00000000      0.00000000      0.00000000      0.00000000</v>
    <i type="int" name="LMAXPAW">  -100</i>
    <i type="int" name="LMAXMIX">     2</i>
    <i type="logical" name="NLSPLINE"> F  </i>
   </separator>
   <separator name="electronic startup" >
    <i type="int" name="ISTART">     0</i>
    <i type="int" name="ICHARG">     2</i>
    <i type="int" name="INIWAV">     1</i>
   </separator>
   <separator name="electronic spin" >
    <i type="int" name="ISPIN">     1</i>
    <i type="logical" name="LNONCOLLINEAR"> F  </i>
    <v name="MAGMOM">      1.00000000      1.00000000      1.00000000      1.00000000      1.00000000      1.00000000      1.00000000      1.00000000      1.00000000      1.00000000      1.00000000      1.00000000      1.00000000      1.00000000      1.00000000      1.00000000      1.00000000      1.00000000      1.00000000      1.00000000
</v>
    <i name="NUPDOWN">     -1.00000000</i>
    <i type="logical" name="LSORBIT"> F  </i>
    <v name="SAXIS">      0.00000000      0.00000000      1.00000000</v>
    <i type="logical" name="LSPIRAL"> F  </i>
    <v name="QSPIRAL">      0.00000000      0.00000000      0.00000000</v>
    <i type="logical" name="LZEROZ"> F  </i>
   </separator>
   <separator name="electronic exchange-correlation" >
    <i type="logical" name="LASPH"> F  </i>
    <i type="logical" name="LMETAGGA"> F  </i>
   </separator>
   <separator name="electronic convergence" >
    <i type="int" name="NELM">    60</i>
    <i type="int" name="NELMDL">     0</i>
    <i type="int" name="NELMIN">     2</i>
    <i name="ENINI">    500.00000000</i>
    <separator name="electronic convergence detail" >
     <i type="logical" name="LDIAG"> T  </i>
     <i type="logical" name="LSUBROT"> F  </i>
     <i name="WEIMIN">      0.00000000</i>
     <i name="EBREAK">      0.00000003</i>
     <i name="DEPER">      0.30000000</i>
     <i type="int" name="NRMM">     4</i>
     <i name="TIME">      0.40000000</i>
    </separator>
   </separator>
   <separator name="electronic mixer" >
    <i name="AMIX">      0.40000000</i>
    <i name="BMIX">      1.00000000</i>
    <i name="AMIN">      0.10000000</i>
    <i name="AMIX_MAG">      1.60000000</i>
    <i name="BMIX_MAG">      1.00000000</i>
    <separator name="electronic mixer details" >
     <i type="int" name="IMIX">     4</i>
     <i type="logical" name="MIXFIRST"> F  </i>
     <i type="int" name="MAXMIX">   -45</i>
     <i name="WC">    100.00000000</i>
     <i type="int" name="INIMIX">     1</i>
     <i type="int" name="MIXPRE">     1</i>
     <i type="int" name="MREMOVE">     5</i>
    </separator>
   </separator>
   <separator name="electronic dipolcorrection" >
    <i type="logical" name="LDIPOL"> F  </i>
    <i type="logical" name="LMONO"> F  </i>
    <i type="int" name="IDIPOL">     0</i>
    <i name="EPSILON">      1.00000000</i>
    <v name="DIPOL">   -100.00000000   -100.00000000   -100.00000000</v>
    <i name="EFIELD">      0.00000000</i>
   </separator>
  </separator>
  <separator name="grids" >
   <i type="int" name="NGX">    50</i>
   <i type="int" name="NGY">    50</i>
   <i type="int" name="NGZ">    50</i>
   <i type="int" name="NGXF">   100</i>
   <i type="int" name="NGYF">   100</i>
   <i type="int" name="NGZF">   100</i>
   <i type="logical" name="ADDGRID"> F  </i>
  </separator>
  <separator name="ionic" >
   <i type="int" name="NSW">     0</i>
   <i type="int" name="IBRION">    -1</i>
   <i type="int" name="MDALGO">     0</i>
   <i type="int" name="ISIF">     2</i>
   <i name="PSTRESS">      0.00000000</i>
   <i name="EDIFFG">     -0.01000000</i>
   <i type="int" name="NFREE">     0</i>
   <i name="POTIM">      0.50000000</i>
   <i name="SMASS">     -3.00000000</i>
   <i name="SCALEE">      1.00000000</i>
  </separator>
  <separator name="ionic md" >
   <i name="TEBEG">      0.00010000</i>
   <i name="TEEND">      0.00010000</i>
   <i type="int" name="NBLOCK">     1</i>
   <i type="int" name="KBLOCK">     1</i>
   <i type="int" name="NPACO">   256</i>
   <i name="APACO">     16.00000000</i>
  </separator>
  <separator name="symmetry" >
   <i type="int" name="ISYM">     2</i>
   <i name="SYMPREC">      0.00001000</i>
  </separator>
  <separator name="dos" >
   <i type="int" name="LORBIT">     0</i>
   <v name="RWIGS">     -1.00000000     -1.00000000     -1.00000000     -1.00000000</v>
   <i type="int" name="NEDOS">   301</i>
   <i name="EMIN">     10.00000000</i>
   <i name="EMAX">    -10.00000000</i>
   <i name="EFERMI">      0.00000000</i>
  </separator>
  <separator name="writing" >
   <i type="int" name="NWRITE">     2</i>
   <i type="logical" name="LWAVE"> T  </i>
   <i type="logical" name="LDOWNSAMPLE"> F  </i>
   <i type="logical" name="LCHARG"> T  </i>
   <i type="logical" name="LPARD"> F  </i>
   <i type="logical" name="LVTOT"> F  </i>
   <i type="logical" name="LVHAR"> F  </i>
   <i type="logical" name="LELF"> F  </i>
   <i type="logical" name="LOPTICS"> F  </i>
   <v name="STM">      0.00000000      0.00000000      0.00000000      0.00000000      0.00000000      0.00000000      0.00000000</v>
  </separator>
  <separator name="performance" >
   <i type="int" name="NPAR">     4</i>
   <i type="int" name="NSIM">     4</i>
   <i type="int" name="NBLK">    -1</i>
   <i type="logical" name="LPLANE"> T  </i>
   <i type="logical" name="LSCALAPACK"> T  </i>
   <i type="logical" name="LSCAAWARE"> F  </i>
   <i type="logical" name="LSCALU"> F  </i>
   <i type="logical" name="LASYNC"> F  </i>
   <i type="logical" name="LORBITALREAL"> F  </i>
  </separator>
  <separator name="miscellaneous" >
   <i type="int" name="IDIOT">     3</i>
   <i type="int" name="ISPECIAL">     0</i>
   <i type="logical" name="LMUSIC"> F  </i>
   <v name="POMASS">     92.91000000     16.00000000     87.62000000     47.88000000</v>
   <v name="DARWINR">      0.00000000      0.00000000      0.00000000      0.00000000</v>
   <v name="DARWINV">      1.00000000      1.00000000      1.00000000      1.00000000</v>
   <i type="logical" name="LCORR"> T  </i>
  </separator>
  <i type="logical" name="GGA_COMPAT"> T  </i>
  <i type="logical" name="LBERRY"> F  </i>
  <i type="int" name="ICORELEVEL">     0</i>
  <i type="logical" name="LDAU"> F  </i>
  <i type="int" name="I_CONSTRAINED_M">     0</i>
  <separator name="electronic exchange-correlation" >
   <i type="string" name="GGA">--</i>
   <i type="int" name="VOSKOWN">     0</i>
   <i type="logical" name="LHFCALC"> F  </i>
   <i type="string" name="PRECFOCK"></i>
   <i type="logical" name="LSYMGRAD"> F  </i>
   <i type="logical" name="LHFONE"> F  </i>
   <i type="logical" name="LRHFCALC"> F  </i>
   <i type="logical" name="LTHOMAS"> F  </i>
   <i type="logical" name="LMODELHF"> F  </i>
   <i name="ENCUT4O">     -1.00000000</i>
   <i type="int" name="EXXOEP">     0</i>
   <i type="int" name="FOURORBIT">     0</i>
   <i name="AEXX">      0.00000000</i>
   <i name="HFALPHA">      0.00000000</i>
   <i name="MCALPHA">      0.00000000</i>
   <i name="ALDAX">      1.00000000</i>
   <i name="AGGAX">      1.00000000</i>
   <i name="ALDAC">      1.00000000</i>
   <i name="AGGAC">      1.00000000</i>
   <i type="int" name="NKREDX">     1</i>
   <i type="int" name="NKREDY">     1</i>
   <i type="int" name="NKREDZ">     1</i>
   <i type="logical" name="SHIFTRED"> F  </i>
   <i type="logical" name="ODDONLY"> F  </i>
   <i type="logical" name="EVENONLY"> F  </i>
   <i type="int" name="LMAXFOCK">     0</i>
   <i type="int" name="NMAXFOCKAE">     0</i>
   <i type="logical" name="LFOCKAEDFT"> F  </i>
   <i name="HFSCREEN">      0.00000000</i>
   <i name="HFSCREENC">      0.00000000</i>
   <i type="int" name="NBANDSGWLOW">     0</i>
  </separator>
  <separator name="vdW DFT" >
   <i type="logical" name="LUSE_VDW"> F  </i>
   <i name="Zab_VDW">     -0.84910000</i>
   <i name="PARAM1">      0.12340000</i>
   <i name="PARAM2">      1.00000000</i>
   <i name="PARAM3">      0.00000000</i>
  </separator>
  <separator name="model GW" >
   <i type="int" name="MODEL_GW">     0</i>
   <i name="MODEL_EPS0">      7.51708356</i>
   <i name="MODEL_ALPHA">      1.00000000</i>
  </separator>
  <separator name="linear response parameters" >
   <i type="logical" name="LEPSILON"> F  </i>
   <i type="logical" name="LRPA"> F  </i>
   <i type="logical" name="LNABLA"> F  </i>
   <i type="logical" name="LVEL"> F  </i>
   <i type="int" name="KINTER">     0</i>
   <i name="CSHIFT">      0.10000000</i>
   <i name="OMEGAMAX">     -1.00000000</i>
   <i name="DEG_THRESHOLD">      0.00200000</i>
   <i name="RTIME">     -0.10000000</i>
   <i name="WPLASMAI">      0.00000000</i>
   <v name="DFIELD">      0.00000000      0.00000000      0.00000000</v>
   <v name="WPLASMA">      0.00000000      0.00000000      0.00000000      0.00000000      0.00000000      0.00000000      0.00000000      0.00000000      0.00000000</v>
  </separator>
  <separator name="orbital magnetization" >
   <i type="logical" name="NUCIND"> F  </i>
   <v name="MAGPOS">      0.00000000      0.00000000      0.00000000</v>
   <i type="logical" name="LNICSALL"> T  </i>
   <i type="logical" name="ORBITALMAG"> F  </i>
   <i type="logical" name="LMAGBLOCH"> F  </i>
   <i type="logical" name="LCHIMAG"> F  </i>
   <i type="logical" name="LGAUGE"> T  </i>
   <i type="int" name="MAGATOM">     0</i>
   <v name="MAGDIPOL">      0.00000000      0.00000000      0.00000000</v>
   <v name="AVECCONST">      0.00000000      0.00000000      0.00000000</v>
  </separator>
  <separator name="response functions" >
   <i type="logical" name="LADDER"> F  </i>
   <i type="logical" name="LRPAFORCE"> F  </i>
   <i type="logical" name="LFXC"> F  </i>
   <i type="logical" name="LHARTREE"> T  </i>
   <i type="int" name="IBSE">     0</i>
   <v type="int" name="KPOINT">    -1     0     0     0</v>
   <i type="logical" name="LTCTE"> F  </i>
   <i type="logical" name="LTETE"> F  </i>
   <i type="logical" name="LTRIPLET"> F  </i>
   <i type="logical" name="LFXCEPS"> F  </i>
   <i type="logical" name="LFXHEG"> F  </i>
   <i type="int" name="NATURALO">     2</i>
   <i type="logical" name="L2ORDER"> F  </i>
   <i type="logical" name="LMP2LT"> F  </i>
   <i type="logical" name="LUSEW"> F  </i>
   <i name="ENCUTGW">     -2.00000000</i>
   <i name="ENCUTGWSOFT">     -2.00000000</i>
   <i name="ENCUTLF">     -1.00000000</i>
   <i type="int" name="LMAXMP2">    -1</i>
   <i name="SCISSOR">      0.00000000</i>
   <i type="int" name="NOMEGA">     0</i>
   <i type="int" name="NOMEGAR">     0</i>
   <i type="int" name="NBANDSGW">    -1</i>
   <i type="int" name="NBANDSO">    -1</i>
   <i type="int" name="NBANDSV">    -1</i>
   <i type="int" name="NELM">     1</i>
   <i type="int" name="NELMHF">     1</i>
   <i type="int" name="DIM">     3</i>
   <i type="int" name="ANTIRES">     0</i>
   <i name="OMEGAMAX">    -30.00000000</i>
   <i name="OMEGAMIN">    -30.00000000</i>
   <i name="OMEGATL">   -200.00000000</i>
   <i type="int" name="OMEGAGRID">   140</i>
   <i name="CSHIFT">     -0.10000000</i>
   <i type="logical" name="SELFENERGY"> F  </i>
   <i type="logical" name="LSPECTRAL"> F  </i>
   <i type="logical" name="LSPECTRALGW"> F  </i>
   <i type="logical" name="LSINGLES"> F  </i>
   <i type="logical" name="LFERMIGW"> F  </i>
   <i type="logical" name="ODDONLYGW"> F  </i>
   <i type="logical" name="EVENONLYGW"> F  </i>
   <i type="int" name="NKREDLFX">     1</i>
   <i type="int" name="NKREDLFY">     1</i>
   <i type="int" name="NKREDLFZ">     1</i>
   <i type="int" name="MAXMEM">  2800</i>
   <i type="int" name="TELESCOPE">     0</i>
   <i type="int" name="TAUPAR">     1</i>
   <i type="int" name="OMEGAPAR">    -1</i>
   <i name="LAMBDA">      1.00000000</i>
  </separator>
  <separator name="External order field" >
   <i name="OFIELD_KAPPA">      0.00000000</i>
   <v name="OFIELD_K">      0.00000000      0.00000000      0.00000000</v>
   <i name="OFIELD_Q6_NEAR">      0.00000000</i>
   <i name="OFIELD_Q6_FAR">      0.00000000</i>
   <i name="OFIELD_A">      0.00000000</i>
  </separator>
 </parameters>
 <atominfo>
  <atoms>      20 </atoms>
  <types>       4 </types>
  <array name="atoms" >
   <dimension dim="1">ion</dimension>
   <field type="string">element</field>
   <field type="int">atomtype</field>
   <set>
    <rc><c>Nb</c><c>   1</c></rc>
    <rc><c>O </c><c>   2</c></rc>
    <rc><c>O </c><c>   2</c></rc>
    <rc><c>O </c><c>   2</c></rc>
    <rc><c>O </c><c>   2</c></rc>
    <rc><c>O </c><c>   2</c></rc>
    <rc><c>O </c><c>   2</c></rc>
    <rc><c>O </c><c>   2</c></rc>
    <rc><c>O </c><c>   2</c></rc>
    <rc><c>O </c><c>   2</c></rc>
    <rc><c>O </c><c>   2</c></rc>
    <rc><c>O </c><c>   2</c></rc>
    <rc><c>O </c><c>   2</c></rc>
    <rc><c>Sr</c><c>   3</c></rc>
    <rc><c>Sr</c><c>   3</c></rc>
    <rc><c>Sr</c><c>   3</c></rc>
    <rc><c>Sr</c><c>   3</c></rc>
    <rc><c>Ti</c><c>   4</c></rc>
    <rc><c>Ti</c><c>   4</c></rc>
    <rc><c>Ti</c><c>   4</c></rc>
   </set>
  </array>
  <array name="atomtypes" >
   <dimension dim="1">type</dimension>
   <field type="int">atomspertype</field>
   <field type="string">element</field>
   <field>mass</field>
   <field>valence</field>
   <field type="string">pseudopotential</field>
   <set>
    <rc><c>   1</c><c>Nb</c><c>     92.91000000</c><c>     13.00000000</c><c>  PAW_PBE Nb_sv 25May2007               </c></rc>
    <rc><c>  12</c><c>O </c><c>     16.00000000</c><c>      6.00000000</c><c>  PAW_PBE O 08Apr2002                   </c></rc>
    <rc><c>   4</c><c>Sr</c><c>     87.62000000</c><c>     10.00000000</c><c>  PAW_PBE Sr_sv 07Sep2000               </c></rc>
    <rc><c>   3</c><c>Ti</c><c>     47.88000000</c><c>     12.00000000</c><c>  PAW_PBE Ti_sv 26Sep2005               </c></rc>
   </set>
  </array>
 </atominfo>
 <structure name="initialpos" >
  <crystal>
   <varray name="basis" >
    <v>       3.97151351       3.97151351      -3.97151351 </v>
    <v>       3.97151351      -3.97151351       3.97151351 </v>
    <v>      -3.97151351      -3.97151351      -3.97151351 </v>
   </varray>
   <i name="volume">    250.56945215 </i>
   <varray name="rec_basis" >
    <v>       0.12589659       0.00000000      -0.12589659 </v>
    <v>       0.12589659      -0.12589659       0.00000000 </v>
    <v>       0.00000000      -0.12589659      -0.12589659 </v>
   </varray>
  </crystal>
  <varray name="positions" >
   <v>       0.50000000       0.00000000       0.00000000 </v>
   <v>       0.75059717       0.25059717       0.00000000 </v>
   <v>       0.50000000       0.74940283       0.74940283 </v>
   <v>       0.24940283       0.00000000       0.74940283 </v>
   <v>       0.24940283       0.74940283       0.00000000 </v>
   <v>       0.00000000       0.25000000       0.75000000 </v>
   <v>       0.75000000       0.50000000       0.75000000 </v>
   <v>       0.25000000       0.25000000       0.50000000 </v>
   <v>       0.00000000       0.75000000       0.25000000 </v>
   <v>       0.75059717       0.00000000       0.25059717 </v>
   <v>       0.75000000       0.75000000       0.50000000 </v>
   <v>       0.50000000       0.25059717       0.25059717 </v>
   <v>       0.25000000       0.50000000       0.25000000 </v>
   <v>       0.50000000       0.00000000       0.50000000 </v>
   <v>       0.00000000       0.50000000       0.50000000 </v>
   <v>       0.00000000       0.00000000       0.00000000 </v>
   <v>       0.50000000       0.50000000       0.00000000 </v>
   <v>       0.00000000       0.50000000       0.00000000 </v>
   <v>       0.00000000       0.00000000       0.50000000 </v>
   <v>       0.50000000       0.50000000       0.50000000 </v>
  </varray>
 </structure>
 <calculation>
  <scstep>
   <time name="dav">    0.83    0.84</time>
   <time name="total">    0.89    0.89</time>
   <energy>
    <i name="alphaZ">    893.77255440 </i>
    <i name="ewald"> -11534.20590318 </i>
    <i name="hartreedc">  -3465.20418508 </i>
    <i name="XCdc">    720.61825420 </i>
    <i name="pawpsdc">  11710.78114438 </i>
    <i name="pawaedc"> -11598.61561815 </i>
    <i name="eentropy">      0.00000000 </i>
    <i name="bandstr">    396.62005865 </i>
    <i name="atom">  14879.83824494 </i>
    <i name="e_fr_energy">   2003.60455017 </i>
    <i name="e_wo_entrp">   2003.60455017 </i>
    <i name="e_0_energy">   2003.60455017 </i>
   </energy>
  </scstep>
  <scstep>
   <time name="dav">    0.85    0.85</time>
   <time name="total">    0.87    0.87</time>
   <energy>
    <i name="e_fr_energy">    184.97997040 </i>
    <i name="e_wo_entrp">    184.97997040 </i>
    <i name="e_0_energy">    184.97997040 </i>
   </energy>
  </scstep>
  <scstep>
   <time name="dav">    1.02    1.02</time>
   <time name="total">    1.03    1.04</time>
   <energy>
    <i name="e_fr_energy">   -171.65679625 </i>
    <i name="e_wo_entrp">   -171.65679625 </i>
    <i name="e_0_energy">   -171.65679625 </i>
   </energy>
  </scstep>
  <scstep>
   <time name="dav">    1.14    1.14</time>
   <time name="total">    1.15    1.16</time>
   <energy>
    <i name="e_fr_energy">   -197.16672373 </i>
    <i name="e_wo_entrp">   -197.16672373 </i>
    <i name="e_0_energy">   -197.16672373 </i>
   </energy>
  </scstep>
  <scstep>
   <time name="dav">    1.24    1.24</time>
   <time name="total">    1.32    1.32</time>
   <energy>
    <i name="e_fr_energy">   -198.77982393 </i>
    <i name="e_wo_entrp">   -198.77982393 </i>
    <i name="e_0_energy">   -198.77982393 </i>
   </energy>
  </scstep>
  <scstep>
   <time name="dav">    1.09    1.09</time>
   <time name="total">    1.20    1.20</time>
   <energy>
    <i name="e_fr_energy">   -161.32893163 </i>
    <i name="e_wo_entrp">   -161.32893163 </i>
    <i name="e_0_energy">   -161.32893163 </i>
   </energy>
  </scstep>
  <scstep>
   <time name="dav">    1.06    1.06</time>
   <time name="total">    1.17    1.17</time>
   <energy>
    <i name="e_fr_energy">   -161.80929918 </i>
    <i name="e_wo_entrp">   -161.80929918 </i>
    <i name="e_0_energy">   -161.80929918 </i>
   </energy>
  </scstep>
  <scstep>
   <time name="dav">    1.11    1.12</time>
   <time name="total">    1.23    1.23</time>
   <energy>
    <i name="e_fr_energy">   -161.76838449 </i>
    <i name="e_wo_entrp">   -161.76838449 </i>
    <i name="e_0_energy">   -161.76838449 </i>
   </energy>
  </scstep>
  <scstep>
   <time name="dav">    1.06    1.06</time>
   <time name="total">    1.18    1.18</time>
   <energy>
    <i name="e_fr_energy">   -161.59234562 </i>
    <i name="e_wo_entrp">   -161.59234562 </i>
    <i name="e_0_energy">   -161.59234562 </i>
   </energy>
  </scstep>
  <scstep>
   <time name="dav">    1.19    1.19</time>
   <time name="total">    1.30    1.31</time>
   <energy>
    <i name="e_fr_energy">   -161.57297207 </i>
    <i name="e_wo_entrp">   -161.57297207 </i>
    <i name="e_0_energy">   -161.57297207 </i>
   </energy>
  </scstep>
  <scstep>
   <time name="dav">    1.14    1.14</time>
   <time name="total">    1.25    1.25</time>
   <energy>
    <i name="e_fr_energy">   -161.57810998 </i>
    <i name="e_wo_entrp">   -161.57810998 </i>
    <i name="e_0_energy">   -161.57810998 </i>
   </energy>
  </scstep>
  <scstep>
   <time name="dav">    1.05    1.05</time>
   <time name="total">    1.17    1.17</time>
   <energy>
    <i name="e_fr_energy">   -161.57759302 </i>
    <i name="e_wo_entrp">   -161.57759302 </i>
    <i name="e_0_energy">   -161.57759302 </i>
   </energy>
  </scstep>
  <scstep>
   <time name="dav">    1.14    1.15</time>
   <time name="total">    1.26    1.26</time>
   <energy>
    <i name="e_fr_energy">   -161.57769642 </i>
    <i name="e_wo_entrp">   -161.57769642 </i>
    <i name="e_0_energy">   -161.57769642 </i>
   </energy>
  </scstep>
  <scstep>
   <time name="dav">    1.04    1.04</time>
   <time name="total">    1.16    1.16</time>
   <energy>
    <i name="e_fr_energy">   -161.57766819 </i>
    <i name="e_wo_entrp">   -161.57766819 </i>
    <i name="e_0_energy">   -161.57766819 </i>
   </energy>
  </scstep>
  <scstep>
   <time name="dav">    0.83    0.83</time>
   <time name="total">    0.88    0.88</time>
   <energy>
    <i name="alphaZ">    893.77255440 </i>
    <i name="ewald"> -11534.20590318 </i>
    <i name="hartreedc">  -3477.69172510 </i>
    <i name="XCdc">    725.95863264 </i>
    <i name="pawpsdc">  18437.15212147 </i>
    <i name="pawaedc"> -18338.12496414 </i>
    <i name="eentropy">      0.00000000 </i>
    <i name="bandstr">  -1748.27663112 </i>
    <i name="atom">  14879.83824494 </i>
    <i name="e_fr_energy">   -161.57767009 </i>
    <i name="e_wo_entrp">   -161.57767009 </i>
    <i name="e_0_energy">   -161.57767009 </i>
   </energy>
  </scstep>
  <structure>
   <crystal>
    <varray name="basis" >
     <v>       3.97151351       3.97151351      -3.97151351 </v>
     <v>       3.97151351      -3.97151351       3.97151351 </v>
     <v>      -3.97151351      -3.97151351      -3.97151351 </v>
    </varray>
    <i name="volume">    250.56945215 </i>
    <varray name="rec_basis" >
     <v>       0.12589659       0.00000000      -0.12589659 </v>
     <v>       0.12589659      -0.12589659       0.00000000 </v>
     <v>       0.00000000      -0.12589659      -0.12589659 </v>
    </varray>
   </crystal>
   <varray name="positions" >
    <v>       0.50000000       0.00000000       0.00000000 </v>
    <v>       0.75059717       0.25059717       0.00000000 </v>
    <v>       0.50000000       0.74940283       0.74940283 </v>
    <v>       0.24940283       0.00000000       0.74940283 </v>
    <v>       0.24940283       0.74940283       0.00000000 </v>
    <v>       0.00000000       0.25000000       0.75000000 </v>
    <v>       0.75000000       0.50000000       0.75000000 </v>
    <v>       0.25000000       0.25000000       0.50000000 </v>
    <v>       0.00000000       0.75000000       0.25000000 </v>
    <v>       0.75059717       0.00000000       0.25059717 </v>
    <v>       0.75000000       0.75000000       0.50000000 </v>
    <v>       0.50000000       0.25059717       0.25059717 </v>
    <v>       0.25000000       0.50000000       0.25000000 </v>
    <v>       0.50000000       0.00000000       0.50000000 </v>
    <v>       0.00000000       0.50000000       0.50000000 </v>
    <v>       0.00000000       0.00000000       0.00000000 </v>
    <v>       0.50000000       0.50000000       0.00000000 </v>
    <v>       0.00000000       0.50000000       0.00000000 </v>
    <v>       0.00000000       0.00000000       0.50000000 </v>
    <v>       0.50000000       0.50000000       0.50000000 </v>
   </varray>
  </structure>
  <varray name="forces" >
   <v>      -0.00000000      -0.00000000       0.00000000 </v>
   <v>      -0.08257062      -0.00000000       0.00000000 </v>
   <v>       0.00000000      -0.08257062       0.00000000 </v>
   <v>       0.00000000      -0.00000000      -0.08257062 </v>
   <v>       0.08257062      -0.00000000      -0.00000000 </v>
   <v>       0.00000000      -0.00000000       0.00000000 </v>
   <v>       0.00000000      -0.00000000       0.00000000 </v>
   <v>      -0.00000000      -0.00000000       0.00000000 </v>
   <v>      -0.00000000      -0.00000000       0.00000000 </v>
   <v>       0.00000000      -0.00000000       0.08257062 </v>
   <v>       0.00000000      -0.00000000       0.00000000 </v>
   <v>       0.00000000       0.08257062       0.00000000 </v>
   <v>      -0.00000000      -0.00000000       0.00000000 </v>
   <v>       0.00000000      -0.00000000       0.00000000 </v>
   <v>      -0.00000000      -0.00000000       0.00000000 </v>
   <v>       0.00000000      -0.00000000       0.00000000 </v>
   <v>       0.00000000      -0.00000000       0.00000000 </v>
   <v>      -0.00000000      -0.00000000       0.00000000 </v>
   <v>      -0.00000000      -0.00000000       0.00000000 </v>
   <v>      -0.00000000      -0.00000000       0.00000000 </v>
  </varray>
  <varray name="stress" >
   <v>       1.52089707       0.00000000       0.00000000 </v>
   <v>       0.00000000       1.52089707      -0.00000000 </v>
   <v>      -0.00000000       0.00000000       1.52089707 </v>
  </varray>
  <energy>
   <i name="e_fr_energy">   -161.57767009 </i>
   <i name="e_wo_entrp">   -161.57767009 </i>
   <i name="e_0_energy">      0.00000000 </i>
  </energy>
  <time name="totalsc">   19.16   21.07</time>
  <eigenvalues>
   <array>
    <dimension dim="1">band</dimension>
    <dimension dim="2">kpoint</dimension>
    <dimension dim="3">spin</dimension>
    <field>eigene</field>
    <field>occ</field>
    <set>
     <set comment="spin 1">
      <set comment="kpoint 1">
       <r>  -52.0179    1.0000 </r>
       <r>  -52.0162    1.0000 </r>
       <r>  -52.0162    1.0000 </r>
       <r>  -50.5600    1.0000 </r>
       <r>  -28.9485    1.0000 </r>
       <r>  -28.9157    1.0000 </r>
       <r>  -28.9157    1.0000 </r>
       <r>  -28.9157    1.0000 </r>
       <r>  -28.3297    1.0000 </r>
       <r>  -28.3297    1.0000 </r>
       <r>  -28.3297    1.0000 </r>
       <r>  -28.3008    1.0000 </r>
       <r>  -28.3008    1.0000 </r>
       <r>  -28.3008    1.0000 </r>
       <r>  -28.2414    1.0000 </r>
       <r>  -28.2414    1.0000 </r>
       <r>  -28.2414    1.0000 </r>
       <r>  -26.7799    1.0000 </r>
       <r>  -26.7799    1.0000 </r>
       <r>  -26.7799    1.0000 </r>
       <r>  -13.3587    1.0000 </r>
       <r>  -12.9863    1.0000 </r>
       <r>  -12.9863    1.0000 </r>
       <r>  -12.5630    1.0000 </r>
       <r>  -12.5630    1.0000 </r>
       <r>  -12.5630    1.0000 </r>
       <r>  -12.5240    1.0000 </r>
       <r>  -12.2830    1.0000 </r>
       <r>  -12.2830    1.0000 </r>
       <r>  -12.2830    1.0000 </r>
       <r>  -12.1541    1.0000 </r>
       <r>  -12.1541    1.0000 </r>
       <r>  -10.9303    1.0000 </r>
       <r>  -10.9303    1.0000 </r>
       <r>  -10.9303    1.0000 </r>
       <r>  -10.8956    1.0000 </r>
       <r>  -10.8176    1.0000 </r>
       <r>  -10.8176    1.0000 </r>
       <r>  -10.5949    1.0000 </r>
       <r>  -10.5949    1.0000 </r>
       <r>  -10.5949    1.0000 </r>
       <r>  -10.4351    1.0000 </r>
       <r>  -10.4351    1.0000 </r>
       <r>  -10.4351    1.0000 </r>
       <r>   -0.9244    1.0000 </r>
       <r>   -0.9244    1.0000 </r>
       <r>   -0.6321    1.0000 </r>
       <r>   -0.6321    1.0000 </r>
       <r>   -0.6321    1.0000 </r>
       <r>   -0.5016    1.0000 </r>
       <r>    0.1055    1.0000 </r>
       <r>    0.1055    1.0000 </r>
       <r>    0.3863    1.0000 </r>
       <r>    1.1788    1.0000 </r>
       <r>    1.1788    1.0000 </r>
       <r>    1.1788    1.0000 </r>
       <r>    1.3513    1.0000 </r>
       <r>    1.3513    1.0000 </r>
       <r>    1.3513    1.0000 </r>
       <r>    1.3654    1.0000 </r>
       <r>    1.3654    1.0000 </r>
       <r>    1.3654    1.0000 </r>
       <r>    2.2769    1.0000 </r>
       <r>    2.2769    1.0000 </r>
       <r>    2.2769    1.0000 </r>
       <r>    2.2895    1.0000 </r>
       <r>    2.2895    1.0000 </r>
       <r>    2.2895    1.0000 </r>
       <r>    2.5267    1.0000 </r>
       <r>    2.5267    1.0000 </r>
       <r>    2.5267    1.0000 </r>
       <r>    3.0102    1.0000 </r>
       <r>    3.0102    1.0000 </r>
       <r>    3.0102    1.0000 </r>
       <r>    3.6550    1.0000 </r>
       <r>    3.6550    1.0000 </r>
       <r>    3.6550    1.0000 </r>
       <r>    3.9029    1.0000 </r>
       <r>    3.9029    1.0000 </r>
       <r>    3.9029    1.0000 </r>
       <r>    6.0548    1.0010 </r>
       <r>    6.0548    1.0807 </r>
       <r>    6.0548    1.1640 </r>
       <r>    7.9720    0.0000 </r>
       <r>    7.9720    0.0000 </r>
       <r>    7.9720    0.0000 </r>
       <r>    8.1289    0.0000 </r>
       <r>    8.1289    0.0000 </r>
       <r>    8.1290    0.0000 </r>
       <r>    8.6366    0.0000 </r>
       <r>    8.6366    0.0000 </r>
       <r>    8.6368    0.0000 </r>
       <r>    8.6638    0.0000 </r>
       <r>    8.6639    0.0000 </r>
       <r>    9.3193    0.0000 </r>
       <r>    9.3374    0.0000 </r>
      </set>
      <set comment="kpoint 2">
       <r>  -52.0178    1.0000 </r>
       <r>  -52.0163    1.0000 </r>
       <r>  -52.0162    1.0000 </r>
       <r>  -50.5600    1.0000 </r>
       <r>  -28.9472    1.0000 </r>
       <r>  -28.9208    1.0000 </r>
       <r>  -28.9169    1.0000 </r>
       <r>  -28.9168    1.0000 </r>
       <r>  -28.3292    1.0000 </r>
       <r>  -28.3289    1.0000 </r>
       <r>  -28.3279    1.0000 </r>
       <r>  -28.2995    1.0000 </r>
       <r>  -28.2952    1.0000 </r>
       <r>  -28.2939    1.0000 </r>
       <r>  -28.2471    1.0000 </r>
       <r>  -28.2460    1.0000 </r>
       <r>  -28.2414    1.0000 </r>
       <r>  -26.7806    1.0000 </r>
       <r>  -26.7793    1.0000 </r>
       <r>  -26.7792    1.0000 </r>
       <r>  -13.3676    1.0000 </r>
       <r>  -13.0289    1.0000 </r>
       <r>  -12.9562    1.0000 </r>
       <r>  -12.7893    1.0000 </r>
       <r>  -12.6197    1.0000 </r>
       <r>  -12.5052    1.0000 </r>
       <r>  -12.3484    1.0000 </r>
       <r>  -12.3031    1.0000 </r>
       <r>  -12.2955    1.0000 </r>
       <r>  -12.2161    1.0000 </r>
       <r>  -12.0922    1.0000 </r>
       <r>  -12.0415    1.0000 </r>
       <r>  -10.9344    1.0000 </r>
       <r>  -10.9188    1.0000 </r>
       <r>  -10.8926    1.0000 </r>
       <r>  -10.8561    1.0000 </r>
       <r>  -10.8417    1.0000 </r>
       <r>  -10.8348    1.0000 </r>
       <r>  -10.6492    1.0000 </r>
       <r>  -10.6327    1.0000 </r>
       <r>  -10.6163    1.0000 </r>
       <r>  -10.5005    1.0000 </r>
       <r>  -10.4796    1.0000 </r>
       <r>  -10.4723    1.0000 </r>
       <r>   -0.8616    1.0000 </r>
       <r>   -0.7109    1.0000 </r>
       <r>   -0.5012    1.0000 </r>
       <r>   -0.4465    1.0000 </r>
       <r>   -0.4357    1.0000 </r>
       <r>   -0.3383    1.0000 </r>
       <r>    0.1469    1.0000 </r>
       <r>    0.2702    1.0000 </r>
       <r>    0.4936    1.0000 </r>
       <r>    1.0109    1.0000 </r>
       <r>    1.0226    1.0000 </r>
       <r>    1.1256    1.0000 </r>
       <r>    1.1655    1.0000 </r>
       <r>    1.1939    1.0000 </r>
       <r>    1.3156    1.0000 </r>
       <r>    1.3201    1.0000 </r>
       <r>    1.3676    1.0000 </r>
       <r>    1.3988    1.0000 </r>
       <r>    2.0364    1.0000 </r>
       <r>    2.0811    1.0000 </r>
       <r>    2.2372    1.0000 </r>
       <r>    2.3523    1.0000 </r>
       <r>    2.3899    1.0000 </r>
       <r>    2.4189    1.0000 </r>
       <r>    2.4284    1.0000 </r>
       <r>    2.6362    1.0000 </r>
       <r>    2.6767    1.0000 </r>
       <r>    2.7920    1.0000 </r>
       <r>    2.8727    1.0000 </r>
       <r>    3.0362    1.0000 </r>
       <r>    3.2544    1.0000 </r>
       <r>    3.4199    1.0000 </r>
       <r>    3.5247    1.0000 </r>
       <r>    3.7713    1.0000 </r>
       <r>    3.8285    1.0000 </r>
       <r>    3.8465    1.0000 </r>
       <r>    6.2691    1.0190 </r>
       <r>    6.3341    0.5291 </r>
       <r>    6.4592    0.2880 </r>
       <r>    7.8526    0.0000 </r>
       <r>    7.8800    0.0000 </r>
       <r>    7.8874    0.0000 </r>
       <r>    8.0221    0.0000 </r>
       <r>    8.1163    0.0000 </r>
       <r>    8.1239    0.0000 </r>
       <r>    8.4294    0.0000 </r>
       <r>    8.5573    0.0000 </r>
       <r>    8.5620    0.0000 </r>
       <r>    8.8049    0.0000 </r>
       <r>    9.1079    0.0000 </r>
       <r>    9.6309    0.0000 </r>
       <r>    9.6371    0.0000 </r>
      </set>
      <set comment="kpoint 3">
       <r>  -52.0175    1.0000 </r>
       <r>  -52.0167    1.0000 </r>
       <r>  -52.0162    1.0000 </r>
       <r>  -50.5600    1.0000 </r>
       <r>  -28.9420    1.0000 </r>
       <r>  -28.9320    1.0000 </r>
       <r>  -28.9189    1.0000 </r>
       <r>  -28.9186    1.0000 </r>
       <r>  -28.3283    1.0000 </r>
       <r>  -28.3276    1.0000 </r>
       <r>  -28.3251    1.0000 </r>
       <r>  -28.2973    1.0000 </r>
       <r>  -28.2803    1.0000 </r>
       <r>  -28.2771    1.0000 </r>
       <r>  -28.2619    1.0000 </r>
       <r>  -28.2589    1.0000 </r>
       <r>  -28.2414    1.0000 </r>
       <r>  -26.7819    1.0000 </r>
       <r>  -26.7784    1.0000 </r>
       <r>  -26.7782    1.0000 </r>
       <r>  -13.3961    1.0000 </r>
       <r>  -13.0521    1.0000 </r>
       <r>  -12.9716    1.0000 </r>
       <r>  -12.8748    1.0000 </r>
       <r>  -12.7390    1.0000 </r>
       <r>  -12.3969    1.0000 </r>
       <r>  -12.3500    1.0000 </r>
       <r>  -12.2883    1.0000 </r>
       <r>  -12.1894    1.0000 </r>
       <r>  -12.0862    1.0000 </r>
       <r>  -12.0208    1.0000 </r>
       <r>  -11.9291    1.0000 </r>
       <r>  -11.0348    1.0000 </r>
       <r>  -10.9635    1.0000 </r>
       <r>  -10.9026    1.0000 </r>
       <r>  -10.8687    1.0000 </r>
       <r>  -10.8046    1.0000 </r>
       <r>  -10.7232    1.0000 </r>
       <r>  -10.7038    1.0000 </r>
       <r>  -10.6960    1.0000 </r>
       <r>  -10.6222    1.0000 </r>
       <r>  -10.5812    1.0000 </r>
       <r>  -10.5782    1.0000 </r>
       <r>  -10.5399    1.0000 </r>
       <r>   -0.8021    1.0000 </r>
       <r>   -0.2506    1.0000 </r>
       <r>   -0.1891    1.0000 </r>
       <r>   -0.0337    1.0000 </r>
       <r>    0.0377    1.0000 </r>
       <r>    0.1336    1.0000 </r>
       <r>    0.1613    1.0000 </r>
       <r>    0.6008    1.0000 </r>
       <r>    0.6053    1.0000 </r>
       <r>    0.7684    1.0000 </r>
       <r>    0.7754    1.0000 </r>
       <r>    0.9061    1.0000 </r>
       <r>    0.9361    1.0000 </r>
       <r>    0.9832    1.0000 </r>
       <r>    1.1461    1.0000 </r>
       <r>    1.3200    1.0000 </r>
       <r>    1.3431    1.0000 </r>
       <r>    1.5124    1.0000 </r>
       <r>    1.5236    1.0000 </r>
       <r>    1.6171    1.0000 </r>
       <r>    1.6871    1.0000 </r>
       <r>    2.1232    1.0000 </r>
       <r>    2.1488    1.0000 </r>
       <r>    2.3891    1.0000 </r>
       <r>    2.6683    1.0000 </r>
       <r>    2.6954    1.0000 </r>
       <r>    2.8673    1.0000 </r>
       <r>    2.9752    1.0000 </r>
       <r>    3.0315    1.0000 </r>
       <r>    3.0322    1.0000 </r>
       <r>    3.0372    1.0000 </r>
       <r>    3.2599    1.0000 </r>
       <r>    3.2874    1.0000 </r>
       <r>    3.5031    1.0000 </r>
       <r>    3.5740    1.0000 </r>
       <r>    3.6775    1.0000 </r>
       <r>    6.7898   -0.0596 </r>
       <r>    6.9290   -0.0088 </r>
       <r>    7.1783   -0.0030 </r>
       <r>    7.3986    0.0000 </r>
       <r>    7.5135    0.0000 </r>
       <r>    7.7102    0.0000 </r>
       <r>    7.8132    0.0000 </r>
       <r>    7.8958    0.0000 </r>
       <r>    8.1817    0.0000 </r>
       <r>    8.2027    0.0000 </r>
       <r>    8.3990    0.0000 </r>
       <r>    8.4252    0.0000 </r>
       <r>    9.0510    0.0000 </r>
       <r>    9.4934    0.0000 </r>
       <r>   10.1956    0.0000 </r>
       <r>   10.4256    0.0000 </r>
      </set>
      <set comment="kpoint 4">
       <r>  -52.0175    1.0000 </r>
       <r>  -52.0166    1.0000 </r>
       <r>  -52.0162    1.0000 </r>
       <r>  -50.5600    1.0000 </r>
       <r>  -28.9439    1.0000 </r>
       <r>  -28.9254    1.0000 </r>
       <r>  -28.9253    1.0000 </r>
       <r>  -28.9151    1.0000 </r>
       <r>  -28.3283    1.0000 </r>
       <r>  -28.3282    1.0000 </r>
       <r>  -28.3255    1.0000 </r>
       <r>  -28.2931    1.0000 </r>
       <r>  -28.2922    1.0000 </r>
       <r>  -28.2794    1.0000 </r>
       <r>  -28.2601    1.0000 </r>
       <r>  -28.2471    1.0000 </r>
       <r>  -28.2462    1.0000 </r>
       <r>  -26.7810    1.0000 </r>
       <r>  -26.7793    1.0000 </r>
       <r>  -26.7782    1.0000 </r>
       <r>  -13.3819    1.0000 </r>
       <r>  -13.0948    1.0000 </r>
       <r>  -12.9657    1.0000 </r>
       <r>  -12.8559    1.0000 </r>
       <r>  -12.5927    1.0000 </r>
       <r>  -12.5434    1.0000 </r>
       <r>  -12.3415    1.0000 </r>
       <r>  -12.2346    1.0000 </r>
       <r>  -12.2136    1.0000 </r>
       <r>  -12.1528    1.0000 </r>
       <r>  -12.0003    1.0000 </r>
       <r>  -11.9776    1.0000 </r>
       <r>  -10.9941    1.0000 </r>
       <r>  -10.9115    1.0000 </r>
       <r>  -10.9053    1.0000 </r>
       <r>  -10.8711    1.0000 </r>
       <r>  -10.8568    1.0000 </r>
       <r>  -10.7461    1.0000 </r>
       <r>  -10.7171    1.0000 </r>
       <r>  -10.6968    1.0000 </r>
       <r>  -10.6063    1.0000 </r>
       <r>  -10.5938    1.0000 </r>
       <r>  -10.5479    1.0000 </r>
       <r>  -10.4876    1.0000 </r>
       <r>   -0.6916    1.0000 </r>
       <r>   -0.5166    1.0000 </r>
       <r>   -0.2897    1.0000 </r>
       <r>   -0.1812    1.0000 </r>
       <r>   -0.0920    1.0000 </r>
       <r>    0.0436    1.0000 </r>
       <r>    0.2808    1.0000 </r>
       <r>    0.4308    1.0000 </r>
       <r>    0.6832    1.0000 </r>
       <r>    0.7711    1.0000 </r>
       <r>    0.8307    1.0000 </r>
       <r>    0.8700    1.0000 </r>
       <r>    1.0914    1.0000 </r>
       <r>    1.1713    1.0000 </r>
       <r>    1.2025    1.0000 </r>
       <r>    1.2792    1.0000 </r>
       <r>    1.3140    1.0000 </r>
       <r>    1.3501    1.0000 </r>
       <r>    1.4587    1.0000 </r>
       <r>    1.9262    1.0000 </r>
       <r>    2.0479    1.0000 </r>
       <r>    2.1473    1.0000 </r>
       <r>    2.1483    1.0000 </r>
       <r>    2.4385    1.0000 </r>
       <r>    2.5648    1.0000 </r>
       <r>    2.6796    1.0000 </r>
       <r>    2.7397    1.0000 </r>
       <r>    2.8796    1.0000 </r>
       <r>    2.9828    1.0000 </r>
       <r>    3.0083    1.0000 </r>
       <r>    3.1645    1.0000 </r>
       <r>    3.2313    1.0000 </r>
       <r>    3.3257    1.0000 </r>
       <r>    3.5726    1.0000 </r>
       <r>    3.5965    1.0000 </r>
       <r>    3.8005    1.0000 </r>
       <r>    6.5082    0.3588 </r>
       <r>    6.9179   -0.0217 </r>
       <r>    6.9276   -0.0193 </r>
       <r>    7.5380    0.0000 </r>
       <r>    7.5391    0.0000 </r>
       <r>    7.8627    0.0000 </r>
       <r>    8.0015    0.0000 </r>
       <r>    8.0714    0.0000 </r>
       <r>    8.0915    0.0000 </r>
       <r>    8.2294    0.0000 </r>
       <r>    8.2387    0.0000 </r>
       <r>    8.4965    0.0000 </r>
       <r>    9.1065    0.0000 </r>
       <r>    9.5939    0.0000 </r>
       <r>    9.9081    0.0000 </r>
       <r>   10.1384    0.0000 </r>
      </set>
      <set comment="kpoint 5">
       <r>  -52.0172    1.0000 </r>
       <r>  -52.0169    1.0000 </r>
       <r>  -52.0162    1.0000 </r>
       <r>  -50.5600    1.0000 </r>
       <r>  -28.9368    1.0000 </r>
       <r>  -28.9357    1.0000 </r>
       <r>  -28.9274    1.0000 </r>
       <r>  -28.9147    1.0000 </r>
       <r>  -28.3279    1.0000 </r>
       <r>  -28.3276    1.0000 </r>
       <r>  -28.3240    1.0000 </r>
       <r>  -28.2915    1.0000 </r>
       <r>  -28.2776    1.0000 </r>
       <r>  -28.2774    1.0000 </r>
       <r>  -28.2610    1.0000 </r>
       <r>  -28.2609    1.0000 </r>
       <r>  -28.2468    1.0000 </r>
       <r>  -26.7813    1.0000 </r>
       <r>  -26.7785    1.0000 </r>
       <r>  -26.7784    1.0000 </r>
       <r>  -13.3914    1.0000 </r>
       <r>  -13.1028    1.0000 </r>
       <r>  -13.0833    1.0000 </r>
       <r>  -12.7256    1.0000 </r>
       <r>  -12.6940    1.0000 </r>
       <r>  -12.5113    1.0000 </r>
       <r>  -12.2998    1.0000 </r>
       <r>  -12.2120    1.0000 </r>
       <r>  -12.2037    1.0000 </r>
       <r>  -12.0459    1.0000 </r>
       <r>  -12.0012    1.0000 </r>
       <r>  -11.9408    1.0000 </r>
       <r>  -11.0337    1.0000 </r>
       <r>  -10.9508    1.0000 </r>
       <r>  -10.9241    1.0000 </r>
       <r>  -10.8783    1.0000 </r>
       <r>  -10.8436    1.0000 </r>
       <r>  -10.7873    1.0000 </r>
       <r>  -10.7310    1.0000 </r>
       <r>  -10.6787    1.0000 </r>
       <r>  -10.6679    1.0000 </r>
       <r>  -10.5957    1.0000 </r>
       <r>  -10.5311    1.0000 </r>
       <r>  -10.5132    1.0000 </r>
       <r>   -0.6041    1.0000 </r>
       <r>   -0.1821    1.0000 </r>
       <r>   -0.1701    1.0000 </r>
       <r>    0.1000    1.0000 </r>
       <r>    0.1158    1.0000 </r>
       <r>    0.2150    1.0000 </r>
       <r>    0.3470    1.0000 </r>
       <r>    0.5274    1.0000 </r>
       <r>    0.5993    1.0000 </r>
       <r>    0.8289    1.0000 </r>
       <r>    0.9057    1.0000 </r>
       <r>    0.9310    1.0000 </r>
       <r>    0.9580    1.0000 </r>
       <r>    0.9621    1.0000 </r>
       <r>    1.1214    1.0000 </r>
       <r>    1.2098    1.0000 </r>
       <r>    1.2157    1.0000 </r>
       <r>    1.2927    1.0000 </r>
       <r>    1.3102    1.0000 </r>
       <r>    1.5432    1.0000 </r>
       <r>    1.7087    1.0000 </r>
       <r>    1.8239    1.0000 </r>
       <r>    2.1316    1.0000 </r>
       <r>    2.3185    1.0000 </r>
       <r>    2.6277    1.0000 </r>
       <r>    2.8556    1.0000 </r>
       <r>    2.8905    1.0000 </r>
       <r>    2.9421    1.0000 </r>
       <r>    3.0459    1.0000 </r>
       <r>    3.0474    1.0000 </r>
       <r>    3.1322    1.0000 </r>
       <r>    3.1937    1.0000 </r>
       <r>    3.3018    1.0000 </r>
       <r>    3.4293    1.0000 </r>
       <r>    3.4513    1.0000 </r>
       <r>    3.7120    1.0000 </r>
       <r>    6.9842   -0.0869 </r>
       <r>    7.0035   -0.0008 </r>
       <r>    7.3423   -0.0002 </r>
       <r>    7.4871    0.0000 </r>
       <r>    7.4922    0.0000 </r>
       <r>    7.5721    0.0000 </r>
       <r>    7.6524    0.0000 </r>
       <r>    8.0151    0.0000 </r>
       <r>    8.0299    0.0000 </r>
       <r>    8.0638    0.0000 </r>
       <r>    8.3049    0.0000 </r>
       <r>    8.3319    0.0000 </r>
       <r>    9.3737    0.0000 </r>
       <r>    9.7011    0.0000 </r>
       <r>   10.0712    0.0000 </r>
       <r>   10.5655    0.0000 </r>
      </set>
      <set comment="kpoint 6">
       <r>  -52.0171    1.0000 </r>
       <r>  -52.0166    1.0000 </r>
       <r>  -52.0166    1.0000 </r>
       <r>  -50.5600    1.0000 </r>
       <r>  -28.9364    1.0000 </r>
       <r>  -28.9257    1.0000 </r>
       <r>  -28.9253    1.0000 </r>
       <r>  -28.9253    1.0000 </r>
       <r>  -28.3282    1.0000 </r>
       <r>  -28.3282    1.0000 </r>
       <r>  -28.3232    1.0000 </r>
       <r>  -28.2802    1.0000 </r>
       <r>  -28.2773    1.0000 </r>
       <r>  -28.2773    1.0000 </r>
       <r>  -28.2616    1.0000 </r>
       <r>  -28.2616    1.0000 </r>
       <r>  -28.2588    1.0000 </r>
       <r>  -26.7805    1.0000 </r>
       <r>  -26.7805    1.0000 </r>
       <r>  -26.7789    1.0000 </r>
       <r>  -13.2890    1.0000 </r>
       <r>  -12.9326    1.0000 </r>
       <r>  -12.9326    1.0000 </r>
       <r>  -12.9159    1.0000 </r>
       <r>  -12.7076    1.0000 </r>
       <r>  -12.7076    1.0000 </r>
       <r>  -12.2599    1.0000 </r>
       <r>  -12.2599    1.0000 </r>
       <r>  -12.1992    1.0000 </r>
       <r>  -12.1073    1.0000 </r>
       <r>  -12.0025    1.0000 </r>
       <r>  -12.0025    1.0000 </r>
       <r>  -10.9729    1.0000 </r>
       <r>  -10.9127    1.0000 </r>
       <r>  -10.9127    1.0000 </r>
       <r>  -10.8537    1.0000 </r>
       <r>  -10.8537    1.0000 </r>
       <r>  -10.7983    1.0000 </r>
       <r>  -10.7983    1.0000 </r>
       <r>  -10.7087    1.0000 </r>
       <r>  -10.6569    1.0000 </r>
       <r>  -10.5498    1.0000 </r>
       <r>  -10.5185    1.0000 </r>
       <r>  -10.5185    1.0000 </r>
       <r>   -0.2208    1.0000 </r>
       <r>   -0.2208    1.0000 </r>
       <r>   -0.0482    1.0000 </r>
       <r>   -0.0482    1.0000 </r>
       <r>    0.0625    1.0000 </r>
       <r>    0.1936    1.0000 </r>
       <r>    0.5630    1.0000 </r>
       <r>    0.7499    1.0000 </r>
       <r>    0.7499    1.0000 </r>
       <r>    0.8494    1.0000 </r>
       <r>    0.8703    1.0000 </r>
       <r>    0.9112    1.0000 </r>
       <r>    0.9112    1.0000 </r>
       <r>    1.0532    1.0000 </r>
       <r>    1.0532    1.0000 </r>
       <r>    1.1722    1.0000 </r>
       <r>    1.1728    1.0000 </r>
       <r>    1.1728    1.0000 </r>
       <r>    1.5008    1.0000 </r>
       <r>    1.5008    1.0000 </r>
       <r>    1.5372    1.0000 </r>
       <r>    1.6129    1.0000 </r>
       <r>    1.6129    1.0000 </r>
       <r>    1.8570    1.0000 </r>
       <r>    2.8889    1.0000 </r>
       <r>    2.9192    1.0000 </r>
       <r>    2.9192    1.0000 </r>
       <r>    2.9889    1.0000 </r>
       <r>    3.0266    1.0000 </r>
       <r>    3.0266    1.0000 </r>
       <r>    3.2473    1.0000 </r>
       <r>    3.2473    1.0000 </r>
       <r>    3.2989    1.0000 </r>
       <r>    3.4502    1.0000 </r>
       <r>    3.4502    1.0000 </r>
       <r>    3.6701    1.0000 </r>
       <r>    7.1977   -0.0223 </r>
       <r>    7.2672   -0.0014 </r>
       <r>    7.2672   -0.0001 </r>
       <r>    7.6413    0.0000 </r>
       <r>    7.6413    0.0000 </r>
       <r>    7.6868    0.0000 </r>
       <r>    7.7254    0.0000 </r>
       <r>    7.7832    0.0000 </r>
       <r>    7.7832    0.0000 </r>
       <r>    7.9542    0.0000 </r>
       <r>    7.9542    0.0000 </r>
       <r>    7.9549    0.0000 </r>
       <r>   10.0668    0.0000 </r>
       <r>   10.0684    0.0000 </r>
       <r>   10.2627    0.0000 </r>
       <r>   10.6693    0.0000 </r>
      </set>
      <set comment="kpoint 7">
       <r>  -52.0177    1.0000 </r>
       <r>  -52.0166    1.0000 </r>
       <r>  -52.0160    1.0000 </r>
       <r>  -50.5600    1.0000 </r>
       <r>  -28.9465    1.0000 </r>
       <r>  -28.9253    1.0000 </r>
       <r>  -28.9253    1.0000 </r>
       <r>  -28.9107    1.0000 </r>
       <r>  -28.3282    1.0000 </r>
       <r>  -28.3282    1.0000 </r>
       <r>  -28.3272    1.0000 </r>
       <r>  -28.2981    1.0000 </r>
       <r>  -28.2981    1.0000 </r>
       <r>  -28.2804    1.0000 </r>
       <r>  -28.2596    1.0000 </r>
       <r>  -28.2414    1.0000 </r>
       <r>  -28.2414    1.0000 </r>
       <r>  -26.7805    1.0000 </r>
       <r>  -26.7786    1.0000 </r>
       <r>  -26.7786    1.0000 </r>
       <r>  -13.4312    1.0000 </r>
       <r>  -13.1604    1.0000 </r>
       <r>  -13.0138    1.0000 </r>
       <r>  -12.7953    1.0000 </r>
       <r>  -12.4452    1.0000 </r>
       <r>  -12.4452    1.0000 </r>
       <r>  -12.4204    1.0000 </r>
       <r>  -12.3060    1.0000 </r>
       <r>  -12.1459    1.0000 </r>
       <r>  -12.1459    1.0000 </r>
       <r>  -12.0802    1.0000 </r>
       <r>  -12.0022    1.0000 </r>
       <r>  -10.9696    1.0000 </r>
       <r>  -10.9216    1.0000 </r>
       <r>  -10.9216    1.0000 </r>
       <r>  -10.8681    1.0000 </r>
       <r>  -10.8332    1.0000 </r>
       <r>  -10.7302    1.0000 </r>
       <r>  -10.7302    1.0000 </r>
       <r>  -10.7228    1.0000 </r>
       <r>  -10.5768    1.0000 </r>
       <r>  -10.5768    1.0000 </r>
       <r>  -10.5602    1.0000 </r>
       <r>  -10.4338    1.0000 </r>
       <r>   -0.8955    1.0000 </r>
       <r>   -0.7007    1.0000 </r>
       <r>   -0.3656    1.0000 </r>
       <r>   -0.2596    1.0000 </r>
       <r>   -0.2596    1.0000 </r>
       <r>   -0.0291    1.0000 </r>
       <r>    0.1289    1.0000 </r>
       <r>    0.2720    1.0000 </r>
       <r>    0.7567    1.0000 </r>
       <r>    0.7970    1.0000 </r>
       <r>    0.7970    1.0000 </r>
       <r>    0.8688    1.0000 </r>
       <r>    1.3224    1.0000 </r>
       <r>    1.3224    1.0000 </r>
       <r>    1.3386    1.0000 </r>
       <r>    1.3459    1.0000 </r>
       <r>    1.3459    1.0000 </r>
       <r>    1.4102    1.0000 </r>
       <r>    1.5122    1.0000 </r>
       <r>    2.1368    1.0000 </r>
       <r>    2.1368    1.0000 </r>
       <r>    2.2743    1.0000 </r>
       <r>    2.3075    1.0000 </r>
       <r>    2.4663    1.0000 </r>
       <r>    2.4663    1.0000 </r>
       <r>    2.6194    1.0000 </r>
       <r>    2.6194    1.0000 </r>
       <r>    2.8188    1.0000 </r>
       <r>    2.8232    1.0000 </r>
       <r>    3.1199    1.0000 </r>
       <r>    3.1199    1.0000 </r>
       <r>    3.4952    1.0000 </r>
       <r>    3.4952    1.0000 </r>
       <r>    3.6100    1.0000 </r>
       <r>    3.6100    1.0000 </r>
       <r>    3.9334    1.0000 </r>
       <r>    6.1194    1.1032 </r>
       <r>    6.8237   -0.0074 </r>
       <r>    6.8237   -0.0352 </r>
       <r>    7.4797    0.0000 </r>
       <r>    7.4797    0.0000 </r>
       <r>    7.9669    0.0000 </r>
       <r>    8.1249    0.0000 </r>
       <r>    8.2067    0.0000 </r>
       <r>    8.2067    0.0000 </r>
       <r>    8.3777    0.0000 </r>
       <r>    8.3777    0.0000 </r>
       <r>    8.6659    0.0000 </r>
       <r>    8.7109    0.0000 </r>
       <r>    9.3216    0.0000 </r>
       <r>    9.6218    0.0000 </r>
       <r>    9.7521    0.0000 </r>
      </set>
      <set comment="kpoint 8">
       <r>  -52.0174    1.0000 </r>
       <r>  -52.0169    1.0000 </r>
       <r>  -52.0159    1.0000 </r>
       <r>  -50.5600    1.0000 </r>
       <r>  -28.9430    1.0000 </r>
       <r>  -28.9350    1.0000 </r>
       <r>  -28.9317    1.0000 </r>
       <r>  -28.9081    1.0000 </r>
       <r>  -28.3273    1.0000 </r>
       <r>  -28.3270    1.0000 </r>
       <r>  -28.3253    1.0000 </r>
       <r>  -28.2960    1.0000 </r>
       <r>  -28.2907    1.0000 </r>
       <r>  -28.2761    1.0000 </r>
       <r>  -28.2618    1.0000 </r>
       <r>  -28.2468    1.0000 </r>
       <r>  -28.2414    1.0000 </r>
       <r>  -26.7801    1.0000 </r>
       <r>  -26.7777    1.0000 </r>
       <r>  -26.7776    1.0000 </r>
       <r>  -13.5076    1.0000 </r>
       <r>  -13.2601    1.0000 </r>
       <r>  -13.2100    1.0000 </r>
       <r>  -12.6264    1.0000 </r>
       <r>  -12.5058    1.0000 </r>
       <r>  -12.4010    1.0000 </r>
       <r>  -12.3316    1.0000 </r>
       <r>  -12.2306    1.0000 </r>
       <r>  -12.0863    1.0000 </r>
       <r>  -12.0073    1.0000 </r>
       <r>  -11.9772    1.0000 </r>
       <r>  -11.9084    1.0000 </r>
       <r>  -11.0781    1.0000 </r>
       <r>  -10.9273    1.0000 </r>
       <r>  -10.9099    1.0000 </r>
       <r>  -10.9057    1.0000 </r>
       <r>  -10.8681    1.0000 </r>
       <r>  -10.8212    1.0000 </r>
       <r>  -10.8202    1.0000 </r>
       <r>  -10.7148    1.0000 </r>
       <r>  -10.6684    1.0000 </r>
       <r>  -10.6063    1.0000 </r>
       <r>  -10.4959    1.0000 </r>
       <r>  -10.4366    1.0000 </r>
       <r>   -0.8198    1.0000 </r>
       <r>   -0.5472    1.0000 </r>
       <r>   -0.1276    1.0000 </r>
       <r>   -0.0142    1.0000 </r>
       <r>    0.0863    1.0000 </r>
       <r>    0.1237    1.0000 </r>
       <r>    0.1961    1.0000 </r>
       <r>    0.4255    1.0000 </r>
       <r>    0.6319    1.0000 </r>
       <r>    0.6537    1.0000 </r>
       <r>    0.8171    1.0000 </r>
       <r>    0.9251    1.0000 </r>
       <r>    1.1145    1.0000 </r>
       <r>    1.1299    1.0000 </r>
       <r>    1.1899    1.0000 </r>
       <r>    1.3169    1.0000 </r>
       <r>    1.3441    1.0000 </r>
       <r>    1.3886    1.0000 </r>
       <r>    1.6193    1.0000 </r>
       <r>    1.6679    1.0000 </r>
       <r>    2.0342    1.0000 </r>
       <r>    2.0508    1.0000 </r>
       <r>    2.1603    1.0000 </r>
       <r>    2.3669    1.0000 </r>
       <r>    2.4602    1.0000 </r>
       <r>    2.6580    1.0000 </r>
       <r>    2.7699    1.0000 </r>
       <r>    2.8542    1.0000 </r>
       <r>    2.9698    1.0000 </r>
       <r>    3.1283    1.0000 </r>
       <r>    3.1325    1.0000 </r>
       <r>    3.2225    1.0000 </r>
       <r>    3.3077    1.0000 </r>
       <r>    3.5501    1.0000 </r>
       <r>    3.5887    1.0000 </r>
       <r>    3.8863    1.0000 </r>
       <r>    6.3908    0.6775 </r>
       <r>    6.9227   -0.0186 </r>
       <r>    7.0489   -0.0155 </r>
       <r>    7.4238    0.0000 </r>
       <r>    7.4478    0.0000 </r>
       <r>    7.8551    0.0000 </r>
       <r>    7.9729    0.0000 </r>
       <r>    8.0932    0.0000 </r>
       <r>    8.1350    0.0000 </r>
       <r>    8.3786    0.0000 </r>
       <r>    8.4954    0.0000 </r>
       <r>    8.6726    0.0000 </r>
       <r>    8.8563    0.0000 </r>
       <r>    9.2896    0.0000 </r>
       <r>    9.5583    0.0000 </r>
       <r>   10.2901    0.0000 </r>
      </set>
      <set comment="kpoint 9">
       <r>  -52.0172    1.0000 </r>
       <r>  -52.0172    1.0000 </r>
       <r>  -52.0158    1.0000 </r>
       <r>  -50.5600    1.0000 </r>
       <r>  -28.9394    1.0000 </r>
       <r>  -28.9388    1.0000 </r>
       <r>  -28.9388    1.0000 </r>
       <r>  -28.9057    1.0000 </r>
       <r>  -28.3267    1.0000 </r>
       <r>  -28.3267    1.0000 </r>
       <r>  -28.3250    1.0000 </r>
       <r>  -28.2896    1.0000 </r>
       <r>  -28.2896    1.0000 </r>
       <r>  -28.2893    1.0000 </r>
       <r>  -28.2470    1.0000 </r>
       <r>  -28.2469    1.0000 </r>
       <r>  -28.2469    1.0000 </r>
       <r>  -26.7789    1.0000 </r>
       <r>  -26.7773    1.0000 </r>
       <r>  -26.7773    1.0000 </r>
       <r>  -13.5649    1.0000 </r>
       <r>  -13.3199    1.0000 </r>
       <r>  -13.3199    1.0000 </r>
       <r>  -12.5077    1.0000 </r>
       <r>  -12.5077    1.0000 </r>
       <r>  -12.3866    1.0000 </r>
       <r>  -12.2399    1.0000 </r>
       <r>  -12.2399    1.0000 </r>
       <r>  -12.0011    1.0000 </r>
       <r>  -11.9745    1.0000 </r>
       <r>  -11.8862    1.0000 </r>
       <r>  -11.8862    1.0000 </r>
       <r>  -11.0611    1.0000 </r>
       <r>  -11.0611    1.0000 </r>
       <r>  -10.9177    1.0000 </r>
       <r>  -10.9177    1.0000 </r>
       <r>  -10.9097    1.0000 </r>
       <r>  -10.8827    1.0000 </r>
       <r>  -10.7767    1.0000 </r>
       <r>  -10.7708    1.0000 </r>
       <r>  -10.7708    1.0000 </r>
       <r>  -10.5576    1.0000 </r>
       <r>  -10.4258    1.0000 </r>
       <r>  -10.4258    1.0000 </r>
       <r>   -0.6632    1.0000 </r>
       <r>   -0.6632    1.0000 </r>
       <r>   -0.3239    1.0000 </r>
       <r>   -0.0064    1.0000 </r>
       <r>    0.1802    1.0000 </r>
       <r>    0.1802    1.0000 </r>
       <r>    0.2554    1.0000 </r>
       <r>    0.4400    1.0000 </r>
       <r>    0.4400    1.0000 </r>
       <r>    0.9283    1.0000 </r>
       <r>    0.9283    1.0000 </r>
       <r>    0.9916    1.0000 </r>
       <r>    1.1957    1.0000 </r>
       <r>    1.1957    1.0000 </r>
       <r>    1.2043    1.0000 </r>
       <r>    1.3543    1.0000 </r>
       <r>    1.3543    1.0000 </r>
       <r>    1.3601    1.0000 </r>
       <r>    1.4117    1.0000 </r>
       <r>    1.5499    1.0000 </r>
       <r>    1.5499    1.0000 </r>
       <r>    2.3046    1.0000 </r>
       <r>    2.3046    1.0000 </r>
       <r>    2.4114    1.0000 </r>
       <r>    2.6191    1.0000 </r>
       <r>    2.6191    1.0000 </r>
       <r>    2.7032    1.0000 </r>
       <r>    2.7232    1.0000 </r>
       <r>    2.9408    1.0000 </r>
       <r>    2.9408    1.0000 </r>
       <r>    3.1327    1.0000 </r>
       <r>    3.1327    1.0000 </r>
       <r>    3.2714    1.0000 </r>
       <r>    3.7422    1.0000 </r>
       <r>    3.7422    1.0000 </r>
       <r>    3.8848    1.0000 </r>
       <r>    6.6045    0.2155 </r>
       <r>    6.6045   -0.0141 </r>
       <r>    6.6108   -0.0137 </r>
       <r>    7.8241    0.0000 </r>
       <r>    7.8241    0.0000 </r>
       <r>    7.8297    0.0000 </r>
       <r>    7.9574    0.0000 </r>
       <r>    7.9595    0.0000 </r>
       <r>    7.9595    0.0000 </r>
       <r>    8.5818    0.0000 </r>
       <r>    8.6156    0.0000 </r>
       <r>    8.6156    0.0000 </r>
       <r>    8.9918    0.0000 </r>
       <r>    9.2121    0.0000 </r>
       <r>    9.2121    0.0000 </r>
       <r>   10.5714    0.0000 </r>
      </set>
      <set comment="kpoint 10">
       <r>  -52.0174    1.0000 </r>
       <r>  -52.0172    1.0000 </r>
       <r>  -52.0157    1.0000 </r>
       <r>  -50.5600    1.0000 </r>
       <r>  -28.9437    1.0000 </r>
       <r>  -28.9407    1.0000 </r>
       <r>  -28.9407    1.0000 </r>
       <r>  -28.9026    1.0000 </r>
       <r>  -28.3260    1.0000 </r>
       <r>  -28.3260    1.0000 </r>
       <r>  -28.3256    1.0000 </r>
       <r>  -28.2938    1.0000 </r>
       <r>  -28.2938    1.0000 </r>
       <r>  -28.2883    1.0000 </r>
       <r>  -28.2471    1.0000 </r>
       <r>  -28.2414    1.0000 </r>
       <r>  -28.2414    1.0000 </r>
       <r>  -26.7773    1.0000 </r>
       <r>  -26.7766    1.0000 </r>
       <r>  -26.7766    1.0000 </r>
       <r>  -13.6509    1.0000 </r>
       <r>  -13.4133    1.0000 </r>
       <r>  -13.4010    1.0000 </r>
       <r>  -12.5024    1.0000 </r>
       <r>  -12.4859    1.0000 </r>
       <r>  -12.2079    1.0000 </r>
       <r>  -12.2042    1.0000 </r>
       <r>  -12.2042    1.0000 </r>
       <r>  -11.9816    1.0000 </r>
       <r>  -11.8409    1.0000 </r>
       <r>  -11.8409    1.0000 </r>
       <r>  -11.8180    1.0000 </r>
       <r>  -11.1270    1.0000 </r>
       <r>  -11.0717    1.0000 </r>
       <r>  -11.0717    1.0000 </r>
       <r>  -10.9042    1.0000 </r>
       <r>  -10.8940    1.0000 </r>
       <r>  -10.8940    1.0000 </r>
       <r>  -10.8581    1.0000 </r>
       <r>  -10.8264    1.0000 </r>
       <r>  -10.8264    1.0000 </r>
       <r>  -10.5098    1.0000 </r>
       <r>  -10.3863    1.0000 </r>
       <r>  -10.3664    1.0000 </r>
       <r>   -0.8657    1.0000 </r>
       <r>   -0.7579    1.0000 </r>
       <r>   -0.4362    1.0000 </r>
       <r>    0.0675    1.0000 </r>
       <r>    0.1097    1.0000 </r>
       <r>    0.1620    1.0000 </r>
       <r>    0.1621    1.0000 </r>
       <r>    0.3092    1.0000 </r>
       <r>    0.4198    1.0000 </r>
       <r>    1.0102    1.0000 </r>
       <r>    1.0102    1.0000 </r>
       <r>    1.2279    1.0000 </r>
       <r>    1.2863    1.0000 </r>
       <r>    1.3102    1.0000 </r>
       <r>    1.3102    1.0000 </r>
       <r>    1.3866    1.0000 </r>
       <r>    1.3866    1.0000 </r>
       <r>    1.6145    1.0000 </r>
       <r>    1.6710    1.0000 </r>
       <r>    1.7633    1.0000 </r>
       <r>    1.8211    1.0000 </r>
       <r>    1.8211    1.0000 </r>
       <r>    1.9382    1.0000 </r>
       <r>    1.9382    1.0000 </r>
       <r>    2.1799    1.0000 </r>
       <r>    2.5221    1.0000 </r>
       <r>    2.5221    1.0000 </r>
       <r>    2.9423    1.0000 </r>
       <r>    3.0903    1.0000 </r>
       <r>    3.0903    1.0000 </r>
       <r>    3.2297    1.0000 </r>
       <r>    3.4078    1.0000 </r>
       <r>    3.4078    1.0000 </r>
       <r>    3.8851    1.0000 </r>
       <r>    3.8851    1.0000 </r>
       <r>    3.9846    1.0000 </r>
       <r>    6.2295    1.0672 </r>
       <r>    6.4531    0.2607 </r>
       <r>    6.4531    0.2456 </r>
       <r>    7.8447    0.0000 </r>
       <r>    7.8447    0.0000 </r>
       <r>    7.9596    0.0000 </r>
       <r>    8.0754    0.0000 </r>
       <r>    8.0754    0.0000 </r>
       <r>    8.1176    0.0000 </r>
       <r>    8.6410    0.0000 </r>
       <r>    8.7393    0.0000 </r>
       <r>    8.7393    0.0000 </r>
       <r>    8.8308    0.0000 </r>
       <r>    8.9228    0.0000 </r>
       <r>    8.9433    0.0000 </r>
       <r>   10.4785    0.0000 </r>
      </set>
     </set>
    </set>
   </array>
  </eigenvalues>
  <separator name="orbital magnetization" >
   <v name="MAGDIPOLOUT">      0.00000000      0.00000000      0.00000000</v>
  </separator>
  <dos>
   <i name="efermi">      6.48851800 </i>
   <total>
    <array>
     <dimension dim="1">gridpoints</dimension>
     <dimension dim="2">spin</dimension>
     <field>energy</field>
     <field>total</field>
     <field>integrated</field>
     <set>
      <set comment="spin 1">
       <r>   -55.1523     0.0000     0.0000 </r>
       <r>   -54.9224     0.0000     0.0000 </r>
       <r>   -54.6926     0.0000     0.0000 </r>
       <r>   -54.4627     0.0000     0.0000 </r>
       <r>   -54.2329     0.0000     0.0000 </r>
       <r>   -54.0030     0.0000     0.0000 </r>
       <r>   -53.7732     0.0000     0.0000 </r>
       <r>   -53.5433     0.0000     0.0000 </r>
       <r>   -53.3135     0.0000     0.0000 </r>
       <r>   -53.0836     0.0000     0.0000 </r>
       <r>   -52.8538     0.0000     0.0000 </r>
       <r>   -52.6239     0.0000     0.0000 </r>
       <r>   -52.3941     0.0000     0.0000 </r>
       <r>   -52.1642     0.0000     0.0000 </r>
       <r>   -51.9344     0.0000     6.0000 </r>
       <r>   -51.7045     0.0000     6.0000 </r>
       <r>   -51.4746     0.0000     6.0000 </r>
       <r>   -51.2448     0.0000     6.0000 </r>
       <r>   -51.0149     0.0000     6.0000 </r>
       <r>   -50.7851     0.0000     6.0000 </r>
       <r>   -50.5552     0.0000     8.0000 </r>
       <r>   -50.3254     0.0000     8.0000 </r>
       <r>   -50.0955     0.0000     8.0000 </r>
       <r>   -49.8657     0.0000     8.0000 </r>
       <r>   -49.6358     0.0000     8.0000 </r>
       <r>   -49.4060     0.0000     8.0000 </r>
       <r>   -49.1761     0.0000     8.0000 </r>
       <r>   -48.9463     0.0000     8.0000 </r>
       <r>   -48.7164     0.0000     8.0000 </r>
       <r>   -48.4866     0.0000     8.0000 </r>
       <r>   -48.2567     0.0000     8.0000 </r>
       <r>   -48.0268     0.0000     8.0000 </r>
       <r>   -47.7970     0.0000     8.0000 </r>
       <r>   -47.5671     0.0000     8.0000 </r>
       <r>   -47.3373     0.0000     8.0000 </r>
       <r>   -47.1074     0.0000     8.0000 </r>
       <r>   -46.8776     0.0000     8.0000 </r>
       <r>   -46.6477     0.0000     8.0000 </r>
       <r>   -46.4179     0.0000     8.0000 </r>
       <r>   -46.1880     0.0000     8.0000 </r>
       <r>   -45.9582     0.0000     8.0000 </r>
       <r>   -45.7283     0.0000     8.0000 </r>
       <r>   -45.4985     0.0000     8.0000 </r>
       <r>   -45.2686     0.0000     8.0000 </r>
       <r>   -45.0388     0.0000     8.0000 </r>
       <r>   -44.8089     0.0000     8.0000 </r>
       <r>   -44.5790     0.0000     8.0000 </r>
       <r>   -44.3492     0.0000     8.0000 </r>
       <r>   -44.1193     0.0000     8.0000 </r>
       <r>   -43.8895     0.0000     8.0000 </r>
       <r>   -43.6596     0.0000     8.0000 </r>
       <r>   -43.4298     0.0000     8.0000 </r>
       <r>   -43.1999     0.0000     8.0000 </r>
       <r>   -42.9701     0.0000     8.0000 </r>
       <r>   -42.7402     0.0000     8.0000 </r>
       <r>   -42.5104     0.0000     8.0000 </r>
       <r>   -42.2805     0.0000     8.0000 </r>
       <r>   -42.0507     0.0000     8.0000 </r>
       <r>   -41.8208     0.0000     8.0000 </r>
       <r>   -41.5910     0.0000     8.0000 </r>
       <r>   -41.3611     0.0000     8.0000 </r>
       <r>   -41.1312     0.0000     8.0000 </r>
       <r>   -40.9014     0.0000     8.0000 </r>
       <r>   -40.6715     0.0000     8.0000 </r>
       <r>   -40.4417     0.0000     8.0000 </r>
       <r>   -40.2118     0.0000     8.0000 </r>
       <r>   -39.9820     0.0000     8.0000 </r>
       <r>   -39.7521     0.0000     8.0000 </r>
       <r>   -39.5223     0.0000     8.0000 </r>
       <r>   -39.2924     0.0000     8.0000 </r>
       <r>   -39.0626     0.0000     8.0000 </r>
       <r>   -38.8327     0.0000     8.0000 </r>
       <r>   -38.6029     0.0000     8.0000 </r>
       <r>   -38.3730     0.0000     8.0000 </r>
       <r>   -38.1432     0.0000     8.0000 </r>
       <r>   -37.9133     0.0000     8.0000 </r>
       <r>   -37.6835     0.0000     8.0000 </r>
       <r>   -37.4536     0.0000     8.0000 </r>
       <r>   -37.2237     0.0000     8.0000 </r>
       <r>   -36.9939     0.0000     8.0000 </r>
       <r>   -36.7640     0.0000     8.0000 </r>
       <r>   -36.5342     0.0000     8.0000 </r>
       <r>   -36.3043     0.0000     8.0000 </r>
       <r>   -36.0745     0.0000     8.0000 </r>
       <r>   -35.8446     0.0000     8.0000 </r>
       <r>   -35.6148     0.0000     8.0000 </r>
       <r>   -35.3849     0.0000     8.0000 </r>
       <r>   -35.1551     0.0000     8.0000 </r>
       <r>   -34.9252     0.0000     8.0000 </r>
       <r>   -34.6954     0.0000     8.0000 </r>
       <r>   -34.4655     0.0000     8.0000 </r>
       <r>   -34.2357     0.0000     8.0000 </r>
       <r>   -34.0058     0.0000     8.0000 </r>
       <r>   -33.7759     0.0000     8.0000 </r>
       <r>   -33.5461     0.0000     8.0000 </r>
       <r>   -33.3162     0.0000     8.0000 </r>
       <r>   -33.0864     0.0000     8.0000 </r>
       <r>   -32.8565     0.0000     8.0000 </r>
       <r>   -32.6267     0.0000     8.0000 </r>
       <r>   -32.3968     0.0000     8.0000 </r>
       <r>   -32.1670     0.0000     8.0000 </r>
       <r>   -31.9371     0.0000     8.0000 </r>
       <r>   -31.7073     0.0000     8.0000 </r>
       <r>   -31.4774     0.0000     8.0000 </r>
       <r>   -31.2476     0.0000     8.0000 </r>
       <r>   -31.0177     0.0000     8.0000 </r>
       <r>   -30.7879     0.0000     8.0000 </r>
       <r>   -30.5580     0.0000     8.0000 </r>
       <r>   -30.3281     0.0000     8.0000 </r>
       <r>   -30.0983     0.0000     8.0000 </r>
       <r>   -29.8684     0.0000     8.0000 </r>
       <r>   -29.6386     0.0000     8.0000 </r>
       <r>   -29.4087     0.0000     8.0000 </r>
       <r>   -29.1789     0.0000     8.0000 </r>
       <r>   -28.9490     0.0000     8.0000 </r>
       <r>   -28.7192     0.0000    16.0000 </r>
       <r>   -28.4893     0.0000    16.0000 </r>
       <r>   -28.2595   184.2247    29.3635 </r>
       <r>   -28.0296     0.0000    34.0000 </r>
       <r>   -27.7998     0.0000    34.0000 </r>
       <r>   -27.5699     0.0000    34.0000 </r>
       <r>   -27.3401     0.0000    34.0000 </r>
       <r>   -27.1102     0.0000    34.0000 </r>
       <r>   -26.8803     0.0000    34.0000 </r>
       <r>   -26.6505     0.0000    40.0000 </r>
       <r>   -26.4206     0.0000    40.0000 </r>
       <r>   -26.1908     0.0000    40.0000 </r>
       <r>   -25.9609     0.0000    40.0000 </r>
       <r>   -25.7311     0.0000    40.0000 </r>
       <r>   -25.5012     0.0000    40.0000 </r>
       <r>   -25.2714     0.0000    40.0000 </r>
       <r>   -25.0415     0.0000    40.0000 </r>
       <r>   -24.8117     0.0000    40.0000 </r>
       <r>   -24.5818     0.0000    40.0000 </r>
       <r>   -24.3520     0.0000    40.0000 </r>
       <r>   -24.1221     0.0000    40.0000 </r>
       <r>   -23.8923     0.0000    40.0000 </r>
       <r>   -23.6624     0.0000    40.0000 </r>
       <r>   -23.4325     0.0000    40.0000 </r>
       <r>   -23.2027     0.0000    40.0000 </r>
       <r>   -22.9728     0.0000    40.0000 </r>
       <r>   -22.7430     0.0000    40.0000 </r>
       <r>   -22.5131     0.0000    40.0000 </r>
       <r>   -22.2833     0.0000    40.0000 </r>
       <r>   -22.0534     0.0000    40.0000 </r>
       <r>   -21.8236     0.0000    40.0000 </r>
       <r>   -21.5937     0.0000    40.0000 </r>
       <r>   -21.3639     0.0000    40.0000 </r>
       <r>   -21.1340     0.0000    40.0000 </r>
       <r>   -20.9042     0.0000    40.0000 </r>
       <r>   -20.6743     0.0000    40.0000 </r>
       <r>   -20.4445     0.0000    40.0000 </r>
       <r>   -20.2146     0.0000    40.0000 </r>
       <r>   -19.9847     0.0000    40.0000 </r>
       <r>   -19.7549     0.0000    40.0000 </r>
       <r>   -19.5250     0.0000    40.0000 </r>
       <r>   -19.2952     0.0000    40.0000 </r>
       <r>   -19.0653     0.0000    40.0000 </r>
       <r>   -18.8355     0.0000    40.0000 </r>
       <r>   -18.6056     0.0000    40.0000 </r>
       <r>   -18.3758     0.0000    40.0000 </r>
       <r>   -18.1459     0.0000    40.0000 </r>
       <r>   -17.9161     0.0000    40.0000 </r>
       <r>   -17.6862     0.0000    40.0000 </r>
       <r>   -17.4564     0.0000    40.0000 </r>
       <r>   -17.2265     0.0000    40.0000 </r>
       <r>   -16.9967     0.0000    40.0000 </r>
       <r>   -16.7668     0.0000    40.0000 </r>
       <r>   -16.5369     0.0000    40.0000 </r>
       <r>   -16.3071     0.0000    40.0000 </r>
       <r>   -16.0772     0.0000    40.0000 </r>
       <r>   -15.8474     0.0000    40.0000 </r>
       <r>   -15.6175     0.0000    40.0000 </r>
       <r>   -15.3877     0.0000    40.0000 </r>
       <r>   -15.1578     0.0000    40.0000 </r>
       <r>   -14.9280     0.0000    40.0000 </r>
       <r>   -14.6981     0.0000    40.0000 </r>
       <r>   -14.4683     0.0000    40.0000 </r>
       <r>   -14.2384     0.0000    40.0000 </r>
       <r>   -14.0086     0.0000    40.0000 </r>
       <r>   -13.7787     0.0000    40.0000 </r>
       <r>   -13.5489     2.7537    40.1656 </r>
       <r>   -13.3190     5.3914    42.1849 </r>
       <r>   -13.0892    19.2820    44.0007 </r>
       <r>   -12.8593     7.0589    46.1297 </r>
       <r>   -12.6294    12.4459    48.4578 </r>
       <r>   -12.3996    10.2092    51.7531 </r>
       <r>   -12.1697    13.9212    57.3942 </r>
       <r>   -11.9399    27.7377    62.8319 </r>
       <r>   -11.7100     0.0000    64.0000 </r>
       <r>   -11.4802     0.0000    64.0000 </r>
       <r>   -11.2503     0.0000    64.0000 </r>
       <r>   -11.0205    22.7789    65.2404 </r>
       <r>   -10.7906    43.5618    75.4217 </r>
       <r>   -10.5608    23.1234    83.6285 </r>
       <r>   -10.3309     0.0000    88.0000 </r>
       <r>   -10.1011     0.0000    88.0000 </r>
       <r>    -9.8712     0.0000    88.0000 </r>
       <r>    -9.6414     0.0000    88.0000 </r>
       <r>    -9.4115     0.0000    88.0000 </r>
       <r>    -9.1816     0.0000    88.0000 </r>
       <r>    -8.9518     0.0000    88.0000 </r>
       <r>    -8.7219     0.0000    88.0000 </r>
       <r>    -8.4921     0.0000    88.0000 </r>
       <r>    -8.2622     0.0000    88.0000 </r>
       <r>    -8.0324     0.0000    88.0000 </r>
       <r>    -7.8025     0.0000    88.0000 </r>
       <r>    -7.5727     0.0000    88.0000 </r>
       <r>    -7.3428     0.0000    88.0000 </r>
       <r>    -7.1130     0.0000    88.0000 </r>
       <r>    -6.8831     0.0000    88.0000 </r>
       <r>    -6.6533     0.0000    88.0000 </r>
       <r>    -6.4234     0.0000    88.0000 </r>
       <r>    -6.1936     0.0000    88.0000 </r>
       <r>    -5.9637     0.0000    88.0000 </r>
       <r>    -5.7338     0.0000    88.0000 </r>
       <r>    -5.5040     0.0000    88.0000 </r>
       <r>    -5.2741     0.0000    88.0000 </r>
       <r>    -5.0443     0.0000    88.0000 </r>
       <r>    -4.8144     0.0000    88.0000 </r>
       <r>    -4.5846     0.0000    88.0000 </r>
       <r>    -4.3547     0.0000    88.0000 </r>
       <r>    -4.1249     0.0000    88.0000 </r>
       <r>    -3.8950     0.0000    88.0000 </r>
       <r>    -3.6652     0.0000    88.0000 </r>
       <r>    -3.4353     0.0000    88.0000 </r>
       <r>    -3.2055     0.0000    88.0000 </r>
       <r>    -2.9756     0.0000    88.0000 </r>
       <r>    -2.7458     0.0000    88.0000 </r>
       <r>    -2.5159     0.0000    88.0000 </r>
       <r>    -2.2860     0.0000    88.0000 </r>
       <r>    -2.0562     0.0000    88.0000 </r>
       <r>    -1.8263     0.0000    88.0000 </r>
       <r>    -1.5965     0.0000    88.0000 </r>
       <r>    -1.3666     0.0000    88.0000 </r>
       <r>    -1.1368     0.0000    88.0000 </r>
       <r>    -0.9069     0.2896    88.0017 </r>
       <r>    -0.6771     8.3109    89.6324 </r>
       <r>    -0.4472     6.6466    91.1752 </r>
       <r>    -0.2174    17.7393    93.5768 </r>
       <r>     0.0125    17.6368    96.6849 </r>
       <r>     0.2423    10.9841   101.0993 </r>
       <r>     0.4722    11.1523   103.2155 </r>
       <r>     0.7020     8.4300   105.9992 </r>
       <r>     0.9319    21.1627   110.8304 </r>
       <r>     1.1618    28.1248   115.5407 </r>
       <r>     1.3916    23.7958   123.5356 </r>
       <r>     1.6215    12.8334   126.2454 </r>
       <r>     1.8513     9.2683   128.5501 </r>
       <r>     2.0812    13.5049   131.1694 </r>
       <r>     2.3110     6.8423   134.3131 </r>
       <r>     2.5409     9.0677   136.9274 </r>
       <r>     2.7707    14.8821   140.4694 </r>
       <r>     3.0006    20.3283   145.1872 </r>
       <r>     3.2304    27.0274   150.7871 </r>
       <r>     3.4603    13.5157   154.1383 </r>
       <r>     3.6901    12.9092   157.3868 </r>
       <r>     3.9200     3.3008   159.8836 </r>
       <r>     4.1498     0.0000   160.0000 </r>
       <r>     4.3797     0.0000   160.0000 </r>
       <r>     4.6096     0.0000   160.0000 </r>
       <r>     4.8394     0.0000   160.0000 </r>
       <r>     5.0693     0.0000   160.0000 </r>
       <r>     5.2991     0.0000   160.0000 </r>
       <r>     5.5290     0.0000   160.0000 </r>
       <r>     5.7588     0.0000   160.0000 </r>
       <r>     5.9887     0.0000   160.0000 </r>
       <r>     6.2185     1.1726   160.0625 </r>
       <r>     6.4484     4.1300   160.7891 </r>
       <r>     6.6782     5.1901   161.9132 </r>
       <r>     6.9081     9.5471   163.4083 </r>
       <r>     7.1379     4.6910   165.3098 </r>
       <r>     7.3678     0.0000   166.0000 </r>
       <r>     7.5976    11.9431   168.7992 </r>
       <r>     7.8275    14.1785   171.5134 </r>
       <r>     8.0573    27.1431   175.8717 </r>
       <r>     8.2872    11.1221   179.6911 </r>
       <r>     8.5171    11.0677   182.4937 </r>
       <r>     8.7469     0.7800   184.0210 </r>
       <r>     8.9768     4.4666   184.8545 </r>
       <r>     9.2066     4.2854   185.8614 </r>
       <r>     9.4365     4.9225   186.9604 </r>
       <r>     9.6663     5.6756   188.2596 </r>
       <r>     9.8962     4.1098   189.3267 </r>
       <r>    10.1260     3.6251   190.2836 </r>
       <r>    10.3559     3.9489   191.0003 </r>
       <r>    10.5857     1.9086   191.8930 </r>
       <r>    10.8156     0.0000   192.0000 </r>
       <r>    11.0454     0.0000   192.0000 </r>
       <r>    11.2753     0.0000   192.0000 </r>
       <r>    11.5051     0.0000   192.0000 </r>
       <r>    11.7350     0.0000   192.0000 </r>
       <r>    11.9649     0.0000   192.0000 </r>
       <r>    12.1947     0.0000   192.0000 </r>
       <r>    12.4246     0.0000   192.0000 </r>
       <r>    12.6544     0.0000   192.0000 </r>
       <r>    12.8843     0.0000   192.0000 </r>
       <r>    13.1141     0.0000   192.0000 </r>
       <r>    13.3440     0.0000   192.0000 </r>
       <r>    13.5738     0.0000   192.0000 </r>
       <r>    13.8037     0.0000   192.0000 </r>
      </set>
     </set>
    </array>
   </total>
  </dos>
 </calculation>
 <structure name="finalpos" >
  <crystal>
   <varray name="basis" >
    <v>       3.97151351       3.97151351      -3.97151351 </v>
    <v>       3.97151351      -3.97151351       3.97151351 </v>
    <v>      -3.97151351      -3.97151351      -3.97151351 </v>
   </varray>
   <i name="volume">    250.56945215 </i>
   <varray name="rec_basis" >
    <v>       0.12589659       0.00000000      -0.12589659 </v>
    <v>       0.12589659      -0.12589659       0.00000000 </v>
    <v>       0.00000000      -0.12589659      -0.12589659 </v>
   </varray>
  </crystal>
  <varray name="positions" >
   <v>       0.50000000       0.00000000       0.00000000 </v>
   <v>       0.75059717       0.25059717       0.00000000 </v>
   <v>       0.50000000       0.74940283       0.74940283 </v>
   <v>       0.24940283       0.00000000       0.74940283 </v>
   <v>       0.24940283       0.74940283       0.00000000 </v>
   <v>       0.00000000       0.25000000       0.75000000 </v>
   <v>       0.75000000       0.50000000       0.75000000 </v>
   <v>       0.25000000       0.25000000       0.50000000 </v>
   <v>       0.00000000       0.75000000       0.25000000 </v>
   <v>       0.75059717       0.00000000       0.25059717 </v>
   <v>       0.75000000       0.75000000       0.50000000 </v>
   <v>       0.50000000       0.25059717       0.25059717 </v>
   <v>       0.25000000       0.50000000       0.25000000 </v>
   <v>       0.50000000       0.00000000       0.50000000 </v>
   <v>       0.00000000       0.50000000       0.50000000 </v>
   <v>       0.00000000       0.00000000       0.00000000 </v>
   <v>       0.50000000       0.50000000       0.00000000 </v>
   <v>       0.00000000       0.50000000       0.00000000 </v>
   <v>       0.00000000       0.00000000       0.50000000 </v>
   <v>       0.50000000       0.50000000       0.50000000 </v>
  </varray>
 </structure>
</modeling>
