 running on   40 total cores
 distrk:  each k-point on   40 cores,    1 groups
 distr:  one band on   10 cores,    4 groups
 using from now: INCAR     
 vasp.5.4.4.18Apr17-6-g9f103f2a35 (build Oct 23 2017 21:22:35) complex          
  
 POSCAR found :  4 types and      20 ions
 scaLAPACK will be used

 ----------------------------------------------------------------------------- 
|                                                                             |
|  ADVICE TO THIS USER RUNNING 'VASP/VAMP'   (HEAR YOUR MASTER'S VOICE ...):  |
|                                                                             |
|      You have a (more or less) 'large supercell' and for larger cells       |
|      it might be more efficient to use real space projection opertators     |
|      So try LREAL= Auto  in the INCAR   file.                               |
|      Mind:          For very  accurate calculation you might also keep the  |
|      reciprocal projection scheme          (i.e. LREAL=.FALSE.)             |
|                                                                             |
 ----------------------------------------------------------------------------- 

 LDA part: xc-table for Pade appr. of Perdew
 POSCAR, INCAR and KPOINTS ok, starting setup
 FFT: planning ...
 WAVECAR not read
 entering main loop
       N       E                     dE             d eps       ncg     rms          rms(c)
DAV:   1     0.176807250847E+04    0.17681E+04   -0.85933E+04  3800   0.165E+03
DAV:   2     0.212255790810E+02   -0.17468E+04   -0.16785E+04  4608   0.544E+02
DAV:   3    -0.177565419240E+03   -0.19879E+03   -0.19647E+03  5300   0.178E+02
DAV:   4    -0.191371221720E+03   -0.13806E+02   -0.13738E+02  6560   0.445E+01
DAV:   5    -0.192047387260E+03   -0.67617E+00   -0.67353E+00  6072   0.831E+00    0.450E+01
DAV:   6    -0.163137273511E+03    0.28910E+02   -0.17102E+02  5616   0.523E+01    0.302E+01
DAV:   7    -0.165001137981E+03   -0.18639E+01   -0.92832E+01  5720   0.310E+01    0.209E+01
DAV:   8    -0.162535986999E+03    0.24652E+01   -0.69500E+00  5752   0.139E+01    0.120E+01
DAV:   9    -0.163779248659E+03   -0.12433E+01   -0.72138E+00  5960   0.109E+01    0.108E+01
DAV:  10    -0.162548275746E+03    0.12310E+01   -0.16868E+01  5544   0.118E+01    0.196E+00
DAV:  11    -0.162574750474E+03   -0.26475E-01   -0.17738E+00  5736   0.399E+00    0.261E+00
DAV:  12    -0.162573485032E+03    0.12654E-02   -0.25453E+00  5280   0.410E+00    0.184E+00
DAV:  13    -0.162507531305E+03    0.65954E-01   -0.18308E-01  5248   0.159E+00    0.570E-01
DAV:  14    -0.162504649231E+03    0.28821E-02   -0.15073E-02  6304   0.384E-01    0.332E-01
DAV:  15    -0.162503891550E+03    0.75768E-03   -0.36015E-03  6448   0.174E-01    0.157E-01
DAV:  16    -0.162504051597E+03   -0.16005E-03   -0.25300E-03  6240   0.154E-01    0.364E-02
DAV:  17    -0.162503953458E+03    0.98138E-04   -0.34749E-04  5296   0.723E-02    0.281E-02
DAV:  18    -0.162504074510E+03   -0.12105E-03   -0.14970E-04  3968   0.395E-02    0.190E-02
DAV:  19    -0.162504026807E+03    0.47703E-04   -0.31287E-05  2992   0.217E-02    0.667E-03
DAV:  20    -0.162504021161E+03    0.56459E-05   -0.46631E-06  2584   0.102E-02
   1 F= -.16250402E+03 E0= -.16250402E+03  d E =-.162504E+03
 curvature:   0.00 expect dE= 0.000E+00 dE for cont linesearch  0.000E+00
 trial: gam= 0.00000 g(F)=  0.210E+00 g(S)=  0.337E+01 ort = 0.000E+00 (trialstep = 0.100E+01)
 search vector abs. value=  0.358E+01
 bond charge predicted
       N       E                     dE             d eps       ncg     rms          rms(c)
DAV:   1    -0.185418959330E+03   -0.22915E+02   -0.77003E+02  4752   0.133E+02    0.442E+01
DAV:   2    -0.173930513884E+03    0.11488E+02   -0.23942E+02  5436   0.603E+01    0.194E+01
DAV:   3    -0.163410430509E+03    0.10520E+02   -0.26476E+01  5524   0.265E+01    0.124E+01
DAV:   4    -0.162517797988E+03    0.89263E+00   -0.10655E+01  5976   0.128E+01    0.101E+01
DAV:   5    -0.162028668052E+03    0.48913E+00   -0.31403E+00  5532   0.765E+00    0.766E+00
DAV:   6    -0.162333207567E+03   -0.30454E+00   -0.17444E+00  6484   0.374E+00    0.513E+00
DAV:   7    -0.162329881548E+03    0.33260E-02   -0.18038E+00  5648   0.475E+00    0.353E+00
DAV:   8    -0.162253670742E+03    0.76211E-01   -0.17603E+00  6312   0.307E+00    0.127E+00
DAV:   9    -0.162237361210E+03    0.16310E-01   -0.24944E-01  5720   0.140E+00    0.739E-01
DAV:  10    -0.162261886816E+03   -0.24526E-01   -0.34680E-01  5272   0.147E+00    0.131E+00
DAV:  11    -0.162236161015E+03    0.25726E-01   -0.10366E-01  5188   0.966E-01    0.270E-01
DAV:  12    -0.162237464549E+03   -0.13035E-02   -0.13266E-02  6260   0.371E-01    0.227E-01
DAV:  13    -0.162236347751E+03    0.11168E-02   -0.84026E-03  5744   0.257E-01    0.846E-02
DAV:  14    -0.162236365961E+03   -0.18211E-04   -0.36572E-04  5632   0.601E-02    0.440E-02
DAV:  15    -0.162236368183E+03   -0.22217E-05   -0.56780E-05  4324   0.295E-02
   2 F= -.16223637E+03 E0= -.16223637E+03  d E =0.267653E+00
 trial-energy change:    0.267653  1 .order    0.081166   -3.580116    3.742447
 step:   0.4511(harm=  0.4889)  dis= 0.01352  next Energy=  -163.294364 (dE=-0.790E+00)
 bond charge predicted
       N       E                     dE             d eps       ncg     rms          rms(c)
DAV:   1    -0.170396091390E+03   -0.81597E+01   -0.23357E+02  4740   0.721E+01    0.226E+01
DAV:   2    -0.164847553982E+03    0.55485E+01   -0.26820E+01  4608   0.220E+01    0.903E+00
DAV:   3    -0.165171227628E+03   -0.32367E+00   -0.39227E+01  5504   0.181E+01    0.801E+00
DAV:   4    -0.163525502600E+03    0.16457E+01   -0.34622E+00  5816   0.839E+00    0.408E+00
DAV:   5    -0.163209197404E+03    0.31631E+00   -0.69534E-01  6144   0.486E+00    0.203E+00
DAV:   6    -0.163235079718E+03   -0.25882E-01   -0.73439E-01  6276   0.199E+00    0.177E+00
DAV:   7    -0.163275328127E+03   -0.40248E-01   -0.76332E-01  5964   0.238E+00    0.163E+00
DAV:   8    -0.163269510172E+03    0.58180E-02   -0.34605E-01  6304   0.168E+00    0.734E-01
DAV:   9    -0.163276147717E+03   -0.66375E-02   -0.18230E-01  5812   0.116E+00    0.672E-01
DAV:  10    -0.163270623953E+03    0.55238E-02   -0.36912E-02  6604   0.581E-01    0.126E-01
DAV:  11    -0.163270737527E+03   -0.11357E-03   -0.14588E-03  5772   0.111E-01    0.101E-01
DAV:  12    -0.163270836445E+03   -0.98918E-04   -0.50778E-04  5632   0.727E-02    0.380E-02
DAV:  13    -0.163270880620E+03   -0.44175E-04   -0.88038E-05  4976   0.374E-02    0.151E-02
DAV:  14    -0.163270949422E+03   -0.68802E-04   -0.68293E-05  3448   0.250E-02    0.187E-02
DAV:  15    -0.163270904810E+03    0.44612E-04   -0.27582E-05  2696   0.198E-02    0.502E-03
DAV:  16    -0.163270912499E+03   -0.76891E-05   -0.30054E-06  2572   0.871E-03
   3 F= -.16327091E+03 E0= -.16327091E+03  d E =-.766891E+00
 curvature:  -0.24 expect dE=-0.822E-02 dE for cont linesearch -0.317E-03
 ZBRENT: interpolating
 opt :   0.4426  next Energy=  -163.271201 (dE=-0.767E+00)
 bond charge predicted
       N       E                     dE             d eps       ncg     rms          rms(c)
DAV:   1    -0.163272778280E+03   -0.18735E-02   -0.55463E-02  4648   0.113E+00    0.326E-01
DAV:   2    -0.163272154171E+03    0.62411E-03   -0.90385E-03  4868   0.372E-01    0.172E-01
DAV:   3    -0.163271298788E+03    0.85538E-03   -0.12025E-02  5208   0.284E-01    0.218E-01
DAV:   4    -0.163271147201E+03    0.15159E-03   -0.44197E-03  5228   0.195E-01    0.419E-02
DAV:   5    -0.163271163270E+03   -0.16069E-04   -0.17877E-04  5648   0.510E-02    0.354E-02
DAV:   6    -0.163271191990E+03   -0.28720E-04   -0.25207E-05  3632   0.251E-02    0.262E-02
DAV:   7    -0.163271202641E+03   -0.10652E-04   -0.25159E-05  3412   0.173E-02    0.130E-02
DAV:   8    -0.163271205853E+03   -0.32116E-05   -0.13161E-05  2652   0.145E-02
   4 F= -.16327121E+03 E0= -.16327121E+03  d E =-.767185E+00
 curvature:  -0.22 expect dE=-0.695E-02 dE for cont linesearch -0.464E-05
 ZBRENT: interpolating
 opt :   0.4414  next Energy=  -163.271211 (dE=-0.767E+00)
 bond charge predicted
       N       E                     dE             d eps       ncg     rms          rms(c)
DAV:   1    -0.163271233022E+03   -0.30380E-04   -0.11413E-03  4640   0.164E-01    0.459E-02
DAV:   2    -0.163271275961E+03   -0.42940E-04   -0.18201E-04  4732   0.540E-02    0.249E-02
DAV:   3    -0.163271141227E+03    0.13473E-03   -0.23343E-04  3600   0.406E-02    0.303E-02
DAV:   4    -0.163271203862E+03   -0.62635E-04   -0.88338E-05  3112   0.305E-02    0.693E-03
DAV:   5    -0.163271204127E+03   -0.26442E-06   -0.57324E-06  2380   0.117E-02
   5 F= -.16327120E+03 E0= -.16327120E+03  d E =-.767183E+00
 curvature:  -0.25 expect dE=-0.793E-02 dE for cont linesearch -0.166E-07
 trial: gam= 0.00887 g(F)=  0.308E-01 g(S)=  0.528E-03 ort =-0.484E-03 (trialstep = 0.888E+00)
 search vector abs. value=  0.316E-01
 bond charge predicted
       N       E                     dE             d eps       ncg     rms          rms(c)
DAV:   1    -0.163269837527E+03    0.13663E-02   -0.39761E+00  4104   0.808E+00    0.601E-01
DAV:   2    -0.163292479454E+03   -0.22642E-01   -0.33436E-01  4868   0.213E+00    0.774E-01
DAV:   3    -0.163288170819E+03    0.43086E-02   -0.77121E-02  5544   0.864E-01    0.340E-01
DAV:   4    -0.163287188341E+03    0.98248E-03   -0.67131E-03  6216   0.313E-01    0.227E-01
DAV:   5    -0.163287212032E+03   -0.23691E-04   -0.19206E-03  5576   0.193E-01    0.989E-02
DAV:   6    -0.163287163969E+03    0.48063E-04   -0.48401E-04  6208   0.142E-01    0.498E-02
DAV:   7    -0.163287163558E+03    0.41034E-06   -0.18609E-04  5328   0.564E-02    0.275E-02
DAV:   8    -0.163287171719E+03   -0.81608E-05   -0.33198E-05  3440   0.268E-02
   6 F= -.16328717E+03 E0= -.16328717E+03  d E =-.159676E-01
 trial-energy change:   -0.015968  1 .order   -0.014843   -0.027782   -0.001904
 step:   0.9395(harm=  0.9536)  dis= 0.01027  next Energy=  -163.287227 (dE=-0.160E-01)
 bond charge predicted
       N       E                     dE             d eps       ncg     rms          rms(c)
DAV:   1    -0.163287281271E+03   -0.11771E-03   -0.13344E-02  4216   0.469E-01    0.360E-02
DAV:   2    -0.163287243048E+03    0.38223E-04   -0.11655E-03  4872   0.128E-01    0.470E-02
DAV:   3    -0.163287333250E+03   -0.90202E-04   -0.31267E-04  4412   0.533E-02    0.207E-02
DAV:   4    -0.163287303727E+03    0.29523E-04   -0.23432E-05  2800   0.216E-02    0.133E-02
DAV:   5    -0.163287306943E+03   -0.32163E-05   -0.10081E-05  2552   0.162E-02
   7 F= -.16328731E+03 E0= -.16328731E+03  d E =-.161028E-01
 curvature:  -0.46 expect dE=-0.378E-02 dE for cont linesearch -0.443E-05
 trial: gam= 0.24791 g(F)=  0.821E-02 g(S)=  0.318E-04 ort = 0.552E-03 (trialstep = 0.899E+00)
 search vector abs. value=  0.105E-01
 bond charge predicted
       N       E                     dE             d eps       ncg     rms          rms(c)
DAV:   1    -0.163291818761E+03   -0.45150E-02   -0.13095E+00  4016   0.371E+00    0.389E-01
DAV:   2    -0.163293807921E+03   -0.19892E-02   -0.44972E-02  5040   0.748E-01    0.413E-01
DAV:   3    -0.163293870942E+03   -0.63020E-04   -0.17862E-02  6048   0.379E-01    0.216E-01
DAV:   4    -0.163293199983E+03    0.67096E-03   -0.33138E-03  5792   0.161E-01    0.126E-01
DAV:   5    -0.163293295872E+03   -0.95889E-04   -0.63185E-04  5424   0.857E-02    0.373E-02
DAV:   6    -0.163293265411E+03    0.30460E-04   -0.89876E-05  4984   0.404E-02    0.198E-02
DAV:   7    -0.163293265024E+03    0.38689E-06   -0.10040E-05  2744   0.223E-02
   8 F= -.16329327E+03 E0= -.16329327E+03  d E =-.595808E-02
 trial-energy change:   -0.005958  1 .order   -0.006162   -0.007525   -0.004799
 step:   2.4810(harm=  2.4810)  dis= 0.01430  next Energy=  -163.297695 (dE=-0.104E-01)
 bond charge predicted
       N       E                     dE             d eps       ncg     rms          rms(c)
DAV:   1    -0.163292118412E+03    0.11470E-02   -0.40623E+00  4000   0.653E+00    0.690E-01
DAV:   2    -0.163299277482E+03   -0.71591E-02   -0.13986E-01  5024   0.133E+00    0.719E-01
DAV:   3    -0.163298432687E+03    0.84479E-03   -0.51984E-02  6072   0.673E-01    0.373E-01
DAV:   4    -0.163296909119E+03    0.15236E-02   -0.10102E-02  5792   0.285E-01    0.223E-01
DAV:   5    -0.163297062209E+03   -0.15309E-03   -0.20497E-03  5488   0.152E-01    0.647E-02
DAV:   6    -0.163297003803E+03    0.58406E-04   -0.29221E-04  5976   0.681E-02    0.346E-02
DAV:   7    -0.163297000551E+03    0.32519E-05   -0.30805E-05  3928   0.342E-02
   9 F= -.16329700E+03 E0= -.16329700E+03  d E =-.969361E-02
 curvature:  -1.55 expect dE=-0.121E-01 dE for cont linesearch -0.195E-05
 trial: gam= 0.98883 g(F)=  0.771E-02 g(S)=  0.921E-04 ort =-0.115E-03 (trialstep = 0.714E+00)
 search vector abs. value=  0.178E-01
 bond charge predicted
       N       E                     dE             d eps       ncg     rms          rms(c)
DAV:   1    -0.163299051987E+03   -0.20482E-02   -0.12741E+00  4104   0.393E+00    0.347E-01
DAV:   2    -0.163301106709E+03   -0.20547E-02   -0.36461E-02  4936   0.781E-01    0.249E-01
DAV:   3    -0.163301820501E+03   -0.71379E-03   -0.66875E-03  6072   0.238E-01    0.198E-01
DAV:   4    -0.163301154784E+03    0.66572E-03   -0.41234E-03  5648   0.168E-01    0.125E-01
DAV:   5    -0.163301236567E+03   -0.81782E-04   -0.63778E-04  5600   0.913E-02    0.409E-02
DAV:   6    -0.163301214703E+03    0.21863E-04   -0.79637E-05  4864   0.542E-02    0.151E-02
DAV:   7    -0.163301211397E+03    0.33063E-05   -0.11382E-05  2824   0.211E-02
  10 F= -.16330121E+03 E0= -.16330121E+03  d E =-.421085E-02
 trial-energy change:   -0.004211  1 .order   -0.004329   -0.005487   -0.003170
 step:   1.6892(harm=  1.6892)  dis= 0.01343  next Energy=  -163.303496 (dE=-0.650E-02)
 bond charge predicted
       N       E                     dE             d eps       ncg     rms          rms(c)
DAV:   1    -0.163299189341E+03    0.20254E-02   -0.23835E+00  4104   0.537E+00    0.471E-01
DAV:   2    -0.163303156309E+03   -0.39670E-02   -0.66768E-02  4944   0.106E+00    0.340E-01
DAV:   3    -0.163304153161E+03   -0.99685E-03   -0.10972E-02  6224   0.306E-01    0.258E-01
DAV:   4    -0.163303265962E+03    0.88720E-03   -0.81745E-03  5592   0.232E-01    0.181E-01
DAV:   5    -0.163303331327E+03   -0.65364E-04   -0.18723E-03  5864   0.131E-01    0.781E-02
DAV:   6    -0.163303299597E+03    0.31730E-04   -0.30102E-04  5600   0.678E-02    0.321E-02
DAV:   7    -0.163303288744E+03    0.10853E-04   -0.96903E-05  3464   0.233E-02    0.167E-02
DAV:   8    -0.163303290779E+03   -0.20348E-05   -0.82673E-06  2616   0.176E-02
  11 F= -.16330329E+03 E0= -.16330329E+03  d E =-.629023E-02
 curvature:  -1.95 expect dE=-0.284E-02 dE for cont linesearch -0.915E-06
 trial: gam= 0.13556 g(F)=  0.130E-02 g(S)=  0.155E-03 ort = 0.913E-04 (trialstep = 0.909E+00)
 search vector abs. value=  0.180E-02
 bond charge predicted
       N       E                     dE             d eps       ncg     rms          rms(c)
DAV:   1    -0.163304293055E+03   -0.10043E-02   -0.30382E-01  4260   0.208E+00    0.256E-01
DAV:   2    -0.163304231075E+03    0.61979E-04   -0.13161E-02  5452   0.489E-01    0.173E-01
DAV:   3    -0.163304801028E+03   -0.56995E-03   -0.76643E-03  5756   0.238E-01    0.172E-01
DAV:   4    -0.163304173937E+03    0.62709E-03   -0.25060E-03  5424   0.144E-01    0.634E-02
DAV:   5    -0.163304177723E+03   -0.37859E-05   -0.46378E-04  5496   0.391E-02    0.464E-02
DAV:   6    -0.163304176150E+03    0.15723E-05   -0.19436E-05  3264   0.185E-02
  12 F= -.16330418E+03 E0= -.16330418E+03  d E =-.885372E-03
 trial-energy change:   -0.000885  1 .order   -0.000827   -0.001329   -0.000325
 step:   1.1145(harm=  1.2024)  dis= 0.00287  next Energy=  -163.304214 (dE=-0.923E-03)
 bond charge predicted
       N       E                     dE             d eps       ncg     rms          rms(c)
DAV:   1    -0.163304228650E+03   -0.50927E-04   -0.15310E-02  4168   0.469E-01    0.568E-02
DAV:   2    -0.163304182358E+03    0.46291E-04   -0.70459E-04  5296   0.111E-01    0.600E-02
DAV:   3    -0.163304273805E+03   -0.91447E-04   -0.47439E-04  4480   0.471E-02    0.367E-02
DAV:   4    -0.163304222311E+03    0.51494E-04   -0.64966E-05  3224   0.282E-02    0.211E-02
DAV:   5    -0.163304258405E+03   -0.36094E-04   -0.34124E-05  2632   0.180E-02    0.192E-02
DAV:   6    -0.163304230923E+03    0.27482E-04   -0.23529E-05  2608   0.157E-02    0.150E-02
DAV:   7    -0.163304236905E+03   -0.59816E-05   -0.35216E-05  2172   0.103E-02
  13 F= -.16330424E+03 E0= -.16330424E+03  d E =-.946126E-03
 curvature:  -0.67 expect dE=-0.555E-03 dE for cont linesearch -0.520E-05
 trial: gam= 0.64917 g(F)=  0.497E-03 g(S)=  0.327E-03 ort =-0.118E-03 (trialstep = 0.950E+00)
 search vector abs. value=  0.143E-02
 bond charge predicted
       N       E                     dE             d eps       ncg     rms          rms(c)
DAV:   1    -0.163304253001E+03   -0.22078E-04   -0.25071E-01  4272   0.196E+00    0.172E-01
DAV:   2    -0.163304933684E+03   -0.68068E-03   -0.97376E-03  4864   0.438E-01    0.138E-01
DAV:   3    -0.163304576629E+03    0.35706E-03   -0.25345E-03  5836   0.146E-01    0.113E-01
DAV:   4    -0.163304673767E+03   -0.97138E-04   -0.11089E-03  5160   0.956E-02    0.581E-02
DAV:   5    -0.163304592109E+03    0.81658E-04   -0.21880E-04  5776   0.508E-02    0.324E-02
DAV:   6    -0.163304600432E+03   -0.83232E-05   -0.44563E-05  2904   0.198E-02
  14 F= -.16330460E+03 E0= -.16330460E+03  d E =-.363527E-03
 trial-energy change:   -0.000364  1 .order   -0.000462   -0.000709   -0.000215
 step:   1.3641(harm=  1.3641)  dis= 0.00242  next Energy=  -163.304746 (dE=-0.509E-03)
 bond charge predicted
       N       E                     dE             d eps       ncg     rms          rms(c)
DAV:   1    -0.163304564456E+03    0.27653E-04   -0.47717E-02  4264   0.857E-01    0.697E-02
DAV:   2    -0.163304727767E+03   -0.16331E-03   -0.17980E-03  4832   0.189E-01    0.574E-02
DAV:   3    -0.163304605096E+03    0.12267E-03   -0.34519E-04  5420   0.556E-02    0.456E-02
DAV:   4    -0.163304681529E+03   -0.76433E-04   -0.17999E-04  3464   0.388E-02    0.287E-02
DAV:   5    -0.163304649394E+03    0.32135E-04   -0.32182E-05  2924   0.246E-02    0.913E-03
DAV:   6    -0.163304651576E+03   -0.21825E-05   -0.68137E-06  2472   0.151E-02
  15 F= -.16330465E+03 E0= -.16330465E+03  d E =-.414671E-03
 curvature:  -1.31 expect dE=-0.568E-03 dE for cont linesearch -0.262E-05
 trial: gam= 0.21574 g(F)=  0.414E-03 g(S)=  0.214E-04 ort = 0.536E-04 (trialstep = 0.103E+01)
 search vector abs. value=  0.525E-03
 bond charge predicted
       N       E                     dE             d eps       ncg     rms          rms(c)
DAV:   1    -0.163304290664E+03    0.35873E-03   -0.14171E-01  4260   0.139E+00    0.979E-02
DAV:   2    -0.163304754411E+03   -0.46375E-03   -0.50310E-03  4960   0.302E-01    0.785E-02
DAV:   3    -0.163304629427E+03    0.12498E-03   -0.46867E-04  5908   0.707E-02    0.590E-02
DAV:   4    -0.163304750344E+03   -0.12092E-03   -0.31861E-04  4528   0.492E-02    0.470E-02
DAV:   5    -0.163304672970E+03    0.77373E-04   -0.12688E-04  4364   0.401E-02    0.127E-02
DAV:   6    -0.163304673815E+03   -0.84449E-06   -0.10345E-05  2448   0.170E-02
  16 F= -.16330467E+03 E0= -.16330467E+03  d E =-.222389E-04
 trial-energy change:   -0.000022  1 .order   -0.000178   -0.000461    0.000105
 step:   0.4275(harm=  0.8409)  dis= 0.00059  next Energy=  -163.304736 (dE=-0.844E-04)
 bond charge predicted
       N       E                     dE             d eps       ncg     rms          rms(c)
DAV:   1    -0.163304613883E+03    0.59087E-04   -0.48622E-02  4112   0.814E-01    0.569E-02
DAV:   2    -0.163304712957E+03   -0.99074E-04   -0.17153E-03  4960   0.176E-01    0.444E-02
DAV:   3    -0.163304782048E+03   -0.69091E-04   -0.16566E-04  5224   0.425E-02    0.339E-02
DAV:   4    -0.163304702605E+03    0.79444E-04   -0.10494E-04  3000   0.303E-02    0.253E-02
DAV:   5    -0.163304722944E+03   -0.20340E-04   -0.32581E-05  2752   0.236E-02    0.753E-03
DAV:   6    -0.163304724992E+03   -0.20479E-05   -0.70518E-06  2156   0.136E-02
  17 F= -.16330472E+03 E0= -.16330472E+03  d E =-.734163E-04
 curvature:   1.80 expect dE= 0.182E-03 dE for cont linesearch  0.143E-03
 ZBRENT: interpolating
 opt :   0.8313  next Energy=  -163.304684 (dE=-0.325E-04)
 bond charge predicted
       N       E                     dE             d eps       ncg     rms          rms(c)
DAV:   1    -0.163304650607E+03    0.72337E-04   -0.21708E-02  4272   0.544E-01    0.386E-02
DAV:   2    -0.163304738747E+03   -0.88140E-04   -0.76377E-04  4960   0.118E-01    0.303E-02
DAV:   3    -0.163304686475E+03    0.52272E-04   -0.72055E-05  3664   0.284E-02    0.236E-02
DAV:   4    -0.163304735030E+03   -0.48555E-04   -0.48743E-05  2856   0.231E-02    0.169E-02
DAV:   5    -0.163304714983E+03    0.20047E-04   -0.16046E-05  2452   0.172E-02    0.455E-03
DAV:   6    -0.163304714003E+03    0.97999E-06   -0.37310E-06  2120   0.107E-02
  18 F= -.16330471E+03 E0= -.16330471E+03  d E =-.624274E-04
 curvature:  -0.13 expect dE=-0.398E-05 dE for cont linesearch -0.722E-07
 trial: gam= 0.05821 g(F)=  0.247E-04 g(S)=  0.610E-05 ort = 0.171E-04 (trialstep = 0.992E+00)
 search vector abs. value=  0.346E-04
 reached required accuracy - stopping structural energy minimisation
 writing wavefunctions
