 running on  100 total cores
 distrk:  each k-point on  100 cores,    1 groups
 distr:  one band on   25 cores,    4 groups
 using from now: INCAR     
 vasp.5.4.4.18Apr17-6-g9f103f2a35 (build May 23 2017 16:08:52) complex          
  
 POSCAR found :  3 types and      75 ions
 scaLAPACK will be used

 ----------------------------------------------------------------------------- 
|                                                                             |
|           W    W    AA    RRRRR   N    N  II  N    N   GGGG   !!!           |
|           W    W   A  A   R    R  NN   N  II  NN   N  G    G  !!!           |
|           W    W  A    A  R    R  N N  N  II  N N  N  G       !!!           |
|           W WW W  AAAAAA  RRRRR   N  N N  II  N  N N  G  GGG   !            |
|           WW  WW  A    A  R   R   N   NN  II  N   NN  G    G                |
|           W    W  A    A  R    R  N    N  II  N    N   GGGG   !!!           |
|                                                                             |
|      For optimal performance we recommend to set                            |
|        NCORE= 4 - approx SQRT( number of cores)                             |
|      NCORE specifies how many cores store one orbital (NPAR=cpu/NCORE).     |
|      This setting can  greatly improve the performance of VASP for DFT.     |
|      The default,   NCORE=1            might be grossly inefficient         |
|      on modern multi-core architectures or massively parallel machines.     |
|      Do your own testing !!!!                                               |
|      Unfortunately you need to use the default for GW and RPA calculations. |
|      (for HF NCORE is supported but not extensively tested yet)             |
|                                                                             |
 ----------------------------------------------------------------------------- 


 ----------------------------------------------------------------------------- 
|                                                                             |
|  ADVICE TO THIS USER RUNNING 'VASP/VAMP'   (HEAR YOUR MASTER'S VOICE ...):  |
|                                                                             |
|      You have a (more or less) 'large supercell' and for larger cells       |
|      it might be more efficient to use real space projection opertators     |
|      So try LREAL= Auto  in the INCAR   file.                               |
|      Mind:          For very  accurate calculation you might also keep the  |
|      reciprocal projection scheme          (i.e. LREAL=.FALSE.)             |
|                                                                             |
 ----------------------------------------------------------------------------- 

 LDA part: xc-table for Pade appr. of Perdew
 POSCAR, INCAR and KPOINTS ok, starting setup
 FFT: planning ...
 WAVECAR not read
 entering main loop
       N       E                     dE             d eps       ncg     rms          rms(c)
DAV:   1     0.637064592305E+04    0.63706E+04   -0.33253E+05 11904   0.164E+03
DAV:   2    -0.118909612646E+02   -0.63825E+04   -0.61575E+04 14640   0.569E+02
DAV:   3    -0.666292997942E+03   -0.65440E+03   -0.64834E+03 17320   0.164E+02
DAV:   4    -0.706827364086E+03   -0.40534E+02   -0.40122E+02 19448   0.366E+01
DAV:   5    -0.709038672504E+03   -0.22113E+01   -0.21944E+01 20288   0.818E+00    0.826E+01
DAV:   6    -0.608226511805E+03    0.10081E+03   -0.55232E+02 15664   0.432E+01    0.530E+01
DAV:   7    -0.610006572614E+03   -0.17801E+01   -0.49366E+01 17976   0.129E+01    0.341E+01
DAV:   8    -0.610571074229E+03   -0.56450E+00   -0.73378E+00 17176   0.540E+00    0.615E+00
DAV:   9    -0.611012699700E+03   -0.44163E+00   -0.75704E+00 16576   0.536E+00    0.591E+00
DAV:  10    -0.610089815388E+03    0.92288E+00   -0.31850E+00 16600   0.336E+00    0.113E+00
DAV:  11    -0.610110737300E+03   -0.20922E-01   -0.34273E-01 17464   0.101E+00    0.852E-01
DAV:  12    -0.610106963085E+03    0.37742E-02   -0.93588E-02 17744   0.507E-01    0.436E-01
DAV:  13    -0.610109391654E+03   -0.24286E-02   -0.74336E-02 18032   0.276E-01    0.438E-01
DAV:  14    -0.610106477933E+03    0.29137E-02   -0.17549E-02 18872   0.217E-01    0.279E-01
DAV:  15    -0.610106519052E+03   -0.41119E-04   -0.90290E-03 17224   0.782E-02    0.283E-01
DAV:  16    -0.610106402706E+03    0.11635E-03   -0.67771E-03 16776   0.446E-02    0.271E-01
DAV:  17    -0.610106325763E+03    0.76943E-04   -0.42814E-03 16176   0.377E-02    0.261E-01
DAV:  18    -0.610106184733E+03    0.14103E-03   -0.12725E-03 11312   0.214E-02    0.255E-01
DAV:  19    -0.610106376092E+03   -0.19136E-03   -0.51269E-03  9096   0.179E-02    0.264E-01
DAV:  20    -0.610106158849E+03    0.21724E-03   -0.66644E-04  8664   0.160E-02    0.216E-01
DAV:  21    -0.610106160073E+03   -0.12237E-05   -0.45414E-04  7408   0.645E-03    0.170E-01
DAV:  22    -0.610106189713E+03   -0.29641E-04   -0.87344E-04  7272   0.103E-02    0.272E-01
DAV:  23    -0.610106202662E+03   -0.12949E-04   -0.16431E-03  7232   0.104E-02    0.256E-01
DAV:  24    -0.610106307467E+03   -0.10481E-03   -0.36776E-03  8344   0.142E-02    0.260E-01
DAV:  25    -0.610106158012E+03    0.14946E-03   -0.55100E-04  8128   0.105E-02    0.214E-01
DAV:  26    -0.610106162945E+03   -0.49333E-05   -0.52408E-04  7104   0.484E-03    0.168E-01
DAV:  27    -0.610106169426E+03   -0.64812E-05   -0.47133E-04  7288   0.536E-03    0.162E-01
DAV:  28    -0.610106178623E+03   -0.91968E-05   -0.11543E-03  7336   0.735E-03    0.174E-01
DAV:  29    -0.610106168821E+03    0.98024E-05   -0.59200E-04  7104   0.887E-03    0.233E-01
DAV:  30    -0.610106141103E+03    0.27718E-04   -0.82876E-05  7032   0.455E-03    0.178E-01
DAV:  31    -0.610106148578E+03   -0.74757E-05   -0.22611E-04  6992   0.416E-03    0.168E-01
DAV:  32    -0.610106209212E+03   -0.60633E-04   -0.12870E-03  7160   0.653E-03    0.204E-01
DAV:  33    -0.610106189787E+03    0.19425E-04   -0.84163E-04  7232   0.683E-03    0.254E-01
DAV:  34    -0.610106176317E+03    0.13470E-04   -0.74289E-04  7064   0.552E-03    0.214E-01
DAV:  35    -0.610106153536E+03    0.22781E-04   -0.20800E-04  6936   0.484E-03    0.868E-02
DAV:  36    -0.610106158530E+03   -0.49942E-05   -0.58121E-04  6912   0.449E-03    0.199E-01
DAV:  37    -0.610106151745E+03    0.67854E-05   -0.18339E-04  6888   0.419E-03    0.947E-02
DAV:  38    -0.610106183129E+03   -0.31383E-04   -0.80435E-04  6888   0.430E-03    0.216E-01
DAV:  39    -0.610106152210E+03    0.30918E-04   -0.14842E-04  6888   0.435E-03    0.941E-02
DAV:  40    -0.610106156693E+03   -0.44827E-05   -0.36620E-04  6864   0.358E-03    0.216E-01
DAV:  41    -0.610106156698E+03   -0.45911E-08   -0.26451E-04  6864   0.374E-03    0.188E-01
DAV:  42    -0.610106240380E+03   -0.83682E-04   -0.17974E-03  7200   0.644E-03    0.258E-01
DAV:  43    -0.610106192048E+03    0.48332E-04   -0.14136E-03  7584   0.857E-03    0.255E-01
DAV:  44    -0.610106149369E+03    0.42680E-04   -0.14453E-04  6816   0.461E-03    0.136E-01
DAV:  45    -0.610106154548E+03   -0.51793E-05   -0.34726E-04  6792   0.582E-03    0.173E-01
DAV:  46    -0.610106199690E+03   -0.45142E-04   -0.11021E-03  6800   0.504E-03    0.202E-01
DAV:  47    -0.610106166330E+03    0.33360E-04   -0.59069E-04  6968   0.595E-03    0.183E-01
DAV:  48    -0.610106204107E+03   -0.37777E-04   -0.11819E-03  6864   0.535E-03    0.212E-01
DAV:  49    -0.610106174095E+03    0.30011E-04   -0.81328E-04  6968   0.580E-03    0.218E-01
DAV:  50    -0.610106174967E+03   -0.87166E-06   -0.70445E-04  6784   0.445E-03    0.170E-01
DAV:  51    -0.610106159972E+03    0.14995E-04   -0.35696E-04  6792   0.427E-03    0.160E-01
DAV:  52    -0.610106215679E+03   -0.55707E-04   -0.12666E-03  7120   0.558E-03    0.162E-01
DAV:  53    -0.610106168354E+03    0.47325E-04   -0.50405E-04  7088   0.623E-03    0.253E-01
DAV:  54    -0.610106208450E+03   -0.40097E-04   -0.13867E-03  6896   0.530E-03    0.257E-01
DAV:  55    -0.610106179586E+03    0.28864E-04   -0.10681E-03  6744   0.598E-03    0.255E-01
DAV:  56    -0.610106188606E+03   -0.90202E-05   -0.10004E-03  6680   0.549E-03    0.274E-01
DAV:  57    -0.610106172007E+03    0.16599E-04   -0.77158E-04  6704   0.487E-03    0.253E-01
DAV:  58    -0.610106206733E+03   -0.34725E-04   -0.13635E-03  6680   0.523E-03    0.258E-01
DAV:  59    -0.610106180176E+03    0.26557E-04   -0.10684E-03  6644   0.584E-03    0.255E-01
DAV:  60    -0.610106186795E+03   -0.66193E-05   -0.96620E-04  6648   0.514E-03
   1 F= -.61010619E+03 E0= -.61010619E+03  d E =-.610106E+03
 curvature:   0.00 expect dE= 0.000E+00 dE for cont linesearch  0.000E+00
 trial: gam= 0.00000 g(F)=  0.540E-02 g(S)=  0.229E+02 ort = 0.000E+00 (trialstep = 0.100E+01)
 search vector abs. value=  0.229E+02
 bond charge predicted
       N       E                     dE             d eps       ncg     rms          rms(c)
DAV:   1    -0.760003431203E+03   -0.14990E+03   -0.49087E+03 15132   0.169E+02    0.118E+02
DAV:   2    -0.635680071282E+03    0.12432E+03   -0.50717E+02 15796   0.449E+01    0.462E+01
DAV:   3    -0.609013157699E+03    0.26667E+02   -0.76741E+01 17268   0.174E+01    0.325E+01
DAV:   4    -0.613992544061E+03   -0.49794E+01   -0.49505E+01 17600   0.117E+01    0.258E+01
DAV:   5    -0.606438898243E+03    0.75536E+01   -0.18314E+01 17840   0.925E+00    0.179E+01
DAV:   6    -0.607443029802E+03   -0.10041E+01   -0.69522E+00 18752   0.423E+00    0.101E+01
DAV:   7    -0.607730515264E+03   -0.28749E+00   -0.27740E+00 16788   0.241E+00    0.397E+00
DAV:   8    -0.607775736080E+03   -0.45221E-01   -0.17856E+00 18848   0.210E+00    0.275E+00
DAV:   9    -0.607676435454E+03    0.99301E-01   -0.23097E-01 16624   0.908E-01    0.118E+00
DAV:  10    -0.607675548364E+03    0.88709E-03   -0.12430E-01 18276   0.500E-01    0.574E-01
DAV:  11    -0.607676436996E+03   -0.88863E-03   -0.89661E-03 15336   0.169E-01    0.412E-01
DAV:  12    -0.607676475708E+03   -0.38712E-04   -0.46797E-03 17216   0.113E-01    0.247E-01
DAV:  13    -0.607675939677E+03    0.53603E-03   -0.11730E-03 17672   0.784E-02    0.150E-01
DAV:  14    -0.607675797064E+03    0.14261E-03   -0.59058E-04 19072   0.500E-02    0.106E-01
DAV:  15    -0.607675827502E+03   -0.30438E-04   -0.12271E-04 14504   0.211E-02    0.558E-02
DAV:  16    -0.607675831984E+03   -0.44817E-05   -0.44123E-05 10904   0.133E-02
   2 F= -.60767583E+03 E0= -.60767583E+03  d E =0.243035E+01
 trial-energy change:    2.430355  1 .order    0.955339  -22.931380   24.842058
 step:   0.4345(harm=  0.4800)  dis= 0.00164  next Energy=  -614.966875 (dE=-0.486E+01)
 bond charge predicted
       N       E                     dE             d eps       ncg     rms          rms(c)
DAV:   1    -0.668894944870E+03   -0.61219E+02   -0.16363E+03 15104   0.974E+01    0.629E+01
DAV:   2    -0.621933260485E+03    0.46962E+02   -0.15545E+02 14088   0.256E+01    0.204E+01
DAV:   3    -0.613964737040E+03    0.79685E+01   -0.36276E+01 16972   0.127E+01    0.878E+00
DAV:   4    -0.614392979823E+03   -0.42824E+00   -0.62922E+00 18192   0.390E+00    0.664E+00
DAV:   5    -0.614523220466E+03   -0.13024E+00   -0.42066E+00 17500   0.333E+00    0.533E+00
DAV:   6    -0.614551766792E+03   -0.28546E-01   -0.11187E+00 19328   0.183E+00    0.247E+00
DAV:   7    -0.614741290463E+03   -0.18952E+00   -0.76943E-01 20652   0.122E+00    0.171E+00
DAV:   8    -0.614736450239E+03    0.48402E-02   -0.83753E-02 18536   0.664E-01    0.703E-01
DAV:   9    -0.614741481028E+03   -0.50308E-02   -0.20474E-02 19024   0.248E-01    0.290E-01
DAV:  10    -0.614743296407E+03   -0.18154E-02   -0.23585E-02 20048   0.142E-01    0.282E-01
DAV:  11    -0.614742053125E+03    0.12433E-02   -0.10771E-02 17644   0.133E-01    0.314E-01
DAV:  12    -0.614742703058E+03   -0.64993E-03   -0.20497E-02 17164   0.751E-02    0.190E-01
DAV:  13    -0.614742656873E+03    0.46184E-04   -0.13891E-04 18220   0.251E-02    0.174E-01
DAV:  14    -0.614742504844E+03    0.15203E-03   -0.18835E-05 11816   0.171E-02    0.150E-01
DAV:  15    -0.614742208086E+03    0.29676E-03   -0.91961E-05 14084   0.273E-02    0.108E-01
DAV:  16    -0.614742093236E+03    0.11485E-03   -0.67088E-05 12248   0.148E-02    0.580E-02
DAV:  17    -0.614742092643E+03    0.59357E-06   -0.83281E-06  7320   0.802E-03
   3 F= -.61474209E+03 E0= -.61474209E+03  d E =-.463591E+01
 curvature:  -0.24 expect dE=-0.453E-02 dE for cont linesearch -0.359E-02
 ZBRENT: interpolating
 opt :   0.4236  next Energy=  -614.745282 (dE=-0.464E+01)
 bond charge predicted
       N       E                     dE             d eps       ncg     rms          rms(c)
DAV:   1    -0.614764789101E+03   -0.22696E-01   -0.60825E-01 15460   0.191E+00    0.109E+00
DAV:   2    -0.614750665209E+03    0.14124E-01   -0.84668E-02 14800   0.502E-01    0.675E-01
DAV:   3    -0.614767384043E+03   -0.16719E-01   -0.27889E-01 17252   0.580E-01    0.924E-01
DAV:   4    -0.614746730072E+03    0.20654E-01   -0.25724E-02 17100   0.393E-01    0.326E-01
DAV:   5    -0.614744799270E+03    0.19308E-02   -0.13945E-02 17656   0.174E-01    0.166E-01
DAV:   6    -0.614745200677E+03   -0.40141E-03   -0.38756E-03 16396   0.778E-02    0.179E-01
DAV:   7    -0.614745058158E+03    0.14252E-03   -0.25354E-04 17248   0.314E-02    0.136E-01
DAV:   8    -0.614746017546E+03   -0.95939E-03   -0.71456E-03 17192   0.515E-02    0.464E-01
DAV:   9    -0.614745342313E+03    0.67523E-03   -0.49644E-03 15776   0.365E-02    0.668E-02
DAV:  10    -0.614746102660E+03   -0.76035E-03   -0.85489E-03 16704   0.407E-02    0.462E-01
DAV:  11    -0.614745459814E+03    0.64285E-03   -0.33033E-04 13636   0.224E-02    0.405E-01
DAV:  12    -0.614745302145E+03    0.15767E-03   -0.36686E-03 12048   0.203E-02    0.484E-02
DAV:  13    -0.614745267519E+03    0.34625E-04   -0.25269E-05  8732   0.119E-02    0.232E-02
DAV:  14    -0.614745268567E+03   -0.10473E-05   -0.81967E-06  6988   0.556E-03
   4 F= -.61474527E+03 E0= -.61474527E+03  d E =-.463908E+01
 curvature:  -0.21 expect dE=-0.779E-03 dE for cont linesearch -0.344E-04
 ZBRENT: interpolating
 opt :   0.4224  next Energy=  -614.745307 (dE=-0.464E+01)
 bond charge predicted
       N       E                     dE             d eps       ncg     rms          rms(c)
DAV:   1    -0.614745536958E+03   -0.26944E-03   -0.81188E-03 15488   0.221E-01    0.130E-01
DAV:   2    -0.614746778646E+03   -0.12417E-02   -0.15952E-02 16196   0.773E-02    0.481E-01
DAV:   3    -0.614745453068E+03    0.13256E-02   -0.87357E-03 16376   0.649E-02    0.118E-01
DAV:   4    -0.614745259638E+03    0.19343E-03   -0.20064E-04 17144   0.336E-02    0.464E-02
DAV:   5    -0.614745257933E+03    0.17059E-05   -0.33097E-05  9960   0.127E-02
   5 F= -.61474526E+03 E0= -.61474526E+03  d E =-.463907E+01
 curvature:  -0.24 expect dE=-0.832E-03 dE for cont linesearch -0.462E-05
 ZBRENT: interpolating
 opt :   0.4217  next Energy=  -614.745265 (dE=-0.464E+01)
 bond charge predicted
       N       E                     dE             d eps       ncg     rms          rms(c)
DAV:   1    -0.614745332354E+03   -0.72715E-04   -0.25165E-03 15504   0.118E-01    0.172E-01
DAV:   2    -0.614749017516E+03   -0.36852E-02   -0.36807E-02 17472   0.195E-01    0.414E-01
DAV:   3    -0.614745323462E+03    0.36941E-02   -0.10811E-02 16388   0.166E-01    0.124E-01
DAV:   4    -0.614745452527E+03   -0.12907E-03   -0.26379E-03 16932   0.435E-02    0.283E-01
DAV:   5    -0.614745302331E+03    0.15020E-03   -0.39173E-03 13608   0.258E-02    0.108E-01
DAV:   6    -0.614745244912E+03    0.57418E-04   -0.38176E-05 10328   0.166E-02    0.408E-02
DAV:   7    -0.614745318919E+03   -0.74007E-04   -0.92108E-04 11628   0.139E-02    0.299E-01
DAV:   8    -0.614745257880E+03    0.61039E-04   -0.28767E-03 10400   0.171E-02    0.470E-02
DAV:   9    -0.614745246871E+03    0.11009E-04   -0.75426E-06  6964   0.739E-03    0.412E-02
DAV:  10    -0.614745256507E+03   -0.96352E-05   -0.54625E-06  7412   0.772E-03
   6 F= -.61474526E+03 E0= -.61474526E+03  d E =-.463907E+01
 curvature:  -0.36 expect dE=-0.127E-02 dE for cont linesearch -0.135E-04
 ZBRENT: interpolating
 opt :   0.4221  next Energy=  -614.745261 (dE=-0.464E+01)
 bond charge predicted
       N       E                     dE             d eps       ncg     rms          rms(c)
DAV:   1    -0.614745318777E+03   -0.71906E-04   -0.10288E-03 15652   0.689E-02    0.164E-01
DAV:   2    -0.614749045882E+03   -0.37271E-02   -0.36521E-02 17256   0.195E-01    0.412E-01
DAV:   3    -0.614745392626E+03    0.36533E-02   -0.10430E-02 16528   0.162E-01    0.125E-01
DAV:   4    -0.614745423068E+03   -0.30442E-04   -0.18286E-03 16176   0.399E-02    0.280E-01
DAV:   5    -0.614745366662E+03    0.56406E-04   -0.43045E-03 13216   0.242E-02    0.958E-02
DAV:   6    -0.614745280139E+03    0.86523E-04    0.56594E-05  8808   0.119E-02    0.503E-02
DAV:   7    -0.614745280265E+03   -0.12552E-06   -0.21947E-05  9088   0.108E-02
   7 F= -.61474528E+03 E0= -.61474528E+03  d E =-.463909E+01
 curvature:  -0.08 expect dE=-0.282E-03 dE for cont linesearch -0.341E-05
 ZBRENT: interpolating
 opt :   0.4223  next Energy=  -614.745259 (dE=-0.464E+01)
 bond charge predicted
       N       E                     dE             d eps       ncg     rms          rms(c)
DAV:   1    -0.614745344374E+03   -0.64235E-04   -0.81612E-04 15192   0.308E-02    0.298E-01
DAV:   2    -0.614763376376E+03   -0.18032E-01   -0.18269E-01 17160   0.445E-01    0.824E-01
DAV:   3    -0.614746755199E+03    0.16621E-01   -0.19280E-02 16496   0.328E-01    0.273E-01
DAV:   4    -0.614745218552E+03    0.15366E-02   -0.92369E-03 16920   0.134E-01    0.754E-02
DAV:   5    -0.614745355952E+03   -0.13740E-03   -0.35171E-04 14684   0.385E-02    0.127E-01
DAV:   6    -0.614745369448E+03   -0.13496E-04   -0.30089E-05 11568   0.106E-02    0.114E-01
DAV:   7    -0.614745374396E+03   -0.49473E-05   -0.10476E-07  7248   0.490E-03
   8 F= -.61474537E+03 E0= -.61474537E+03  d E =-.463919E+01
 curvature:  -0.03 expect dE=-0.103E-03 dE for cont linesearch -0.336E-06
 ZBRENT: interpolating
 opt :   0.4223  next Energy=  -614.745375 (dE=-0.464E+01)
 bond charge predicted
       N       E                     dE             d eps       ncg     rms          rms(c)
DAV:   1    -0.614745363336E+03    0.61120E-05   -0.15111E-06  7224   0.996E-03    0.123E-01
DAV:   2    -0.614751840818E+03   -0.64775E-02   -0.58146E-02 16984   0.167E-01    0.629E-01
DAV:   3    -0.614745326795E+03    0.65140E-02   -0.68095E-03 16448   0.149E-01    0.442E-02
DAV:   4    -0.614745281158E+03    0.45637E-04   -0.22193E-04 13812   0.186E-02    0.107E-01
DAV:   5    -0.614745282256E+03   -0.10982E-05   -0.55617E-04  9244   0.115E-02    0.420E-02
DAV:   6    -0.614745280990E+03    0.12660E-05   -0.40886E-06  7600   0.700E-03
   9 F= -.61474528E+03 E0= -.61474528E+03  d E =-.463909E+01
 curvature:  -0.03 expect dE=-0.119E-03 dE for cont linesearch -0.726E-07
 ZBRENT: interpolating
 opt :   0.4223  next Energy=  -614.745281 (dE=-0.464E+01)
 bond charge predicted
       N       E                     dE             d eps       ncg     rms          rms(c)
DAV:   1    -0.614745282894E+03   -0.63774E-06   -0.46456E-06  7152   0.626E-03    0.338E-02
DAV:   2    -0.614746719097E+03   -0.14362E-02   -0.14722E-02 14592   0.457E-02    0.476E-01
DAV:   3    -0.614745331764E+03    0.13873E-02   -0.22976E-03 13760   0.426E-02    0.498E-02
DAV:   4    -0.614745281664E+03    0.50101E-04   -0.25431E-05  9708   0.757E-03    0.307E-02
DAV:   5    -0.614745288016E+03   -0.63519E-05   -0.72049E-05  7156   0.442E-03
  10 F= -.61474529E+03 E0= -.61474529E+03  d E =-.463910E+01
 curvature:  -0.06 expect dE=-0.224E-03 dE for cont linesearch -0.491E-07
 ZBRENT: bisectioning
 opt :   0.4224  next Energy=  -614.745288 (dE=-0.464E+01)
 bond charge predicted
       N       E                     dE             d eps       ncg     rms          rms(c)
DAV:   1    -0.614745285861E+03   -0.41976E-05   -0.15296E-04  6856   0.483E-03    0.311E-02
DAV:   2    -0.614746636501E+03   -0.13506E-02   -0.13882E-02 13928   0.422E-02    0.473E-01
DAV:   3    -0.614745337824E+03    0.12987E-02   -0.19634E-03 13232   0.395E-02    0.116E-01
DAV:   4    -0.614745285663E+03    0.52161E-04   -0.11467E-04  9340   0.728E-03    0.288E-02
DAV:   5    -0.614745291168E+03   -0.55050E-05   -0.10938E-04  7152   0.449E-03    0.111E-01
DAV:   6    -0.614745286375E+03    0.47933E-05   -0.11562E-04  6820   0.352E-03    0.293E-02
DAV:   7    -0.614745288751E+03   -0.23763E-05   -0.71616E-05  6668   0.283E-03
  11 F= -.61474529E+03 E0= -.61474529E+03  d E =-.463910E+01
 curvature:  -0.08 expect dE=-0.306E-03 dE for cont linesearch -0.121E-07
 ZBRENT: bisectioning
 opt :   0.4224  next Energy=  -614.745289 (dE=-0.464E+01)
 bond charge predicted
       N       E                     dE             d eps       ncg     rms          rms(c)
DAV:   1    -0.614745286408E+03   -0.33433E-07   -0.11535E-04  6468   0.298E-03    0.295E-02
DAV:   2    -0.614746509912E+03   -0.12235E-02   -0.12615E-02 13456   0.383E-02    0.469E-01
DAV:   3    -0.614745340278E+03    0.11696E-02   -0.17971E-03 12992   0.360E-02    0.148E-01
DAV:   4    -0.614745288632E+03    0.51646E-04   -0.20048E-04  9120   0.731E-03    0.274E-02
DAV:   5    -0.614745290723E+03   -0.20911E-05   -0.10321E-04  7152   0.458E-03    0.111E-01
DAV:   6    -0.614745286320E+03    0.44032E-05   -0.12327E-04  6816   0.365E-03    0.294E-02
DAV:   7    -0.614745288544E+03   -0.22233E-05   -0.68035E-05  6640   0.288E-03
  12 F= -.61474529E+03 E0= -.61474529E+03  d E =-.463910E+01
 curvature:  -0.07 expect dE=-0.292E-03 dE for cont linesearch -0.334E-08
 ZBRENT: bisectioning
 opt :   0.4224  next Energy=  -614.745289 (dE=-0.464E+01)
 bond charge predicted
       N       E                     dE             d eps       ncg     rms          rms(c)
DAV:   1    -0.614745286266E+03    0.54708E-07   -0.11693E-04  6436   0.251E-03    0.295E-02
DAV:   2    -0.614746496125E+03   -0.12099E-02   -0.12476E-02 13400   0.380E-02    0.468E-01
DAV:   3    -0.614745340241E+03    0.11559E-02   -0.17875E-03 12992   0.356E-02    0.148E-01
DAV:   4    -0.614745288738E+03    0.51502E-04   -0.20611E-04  9104   0.733E-03    0.603E-02
DAV:   5    -0.614745283097E+03    0.56413E-05   -0.24570E-04  7284   0.579E-03    0.319E-02
DAV:   6    -0.614745283789E+03   -0.69204E-06   -0.32966E-06  6948   0.410E-03
  13 F= -.61474528E+03 E0= -.61474528E+03  d E =-.463910E+01
 curvature:  -0.08 expect dE=-0.275E-03 dE for cont linesearch -0.135E-07
 ZBRENT: bisectioning
 opt :   0.4224  next Energy=  -614.745284 (dE=-0.464E+01)
 bond charge predicted
       N       E                     dE             d eps       ncg     rms          rms(c)
DAV:   1    -0.614745284777E+03   -0.16803E-05   -0.20476E-05  6708   0.184E-03    0.414E-02
DAV:   2    -0.614745692409E+03   -0.40763E-03   -0.22029E-03 15712   0.473E-02    0.142E-01
DAV:   3    -0.614745287424E+03    0.40499E-03   -0.20303E-04 13992   0.431E-02    0.458E-02
DAV:   4    -0.614745282058E+03    0.53658E-05   -0.18253E-05 10248   0.955E-03
  14 F= -.61474528E+03 E0= -.61474528E+03  d E =-.463910E+01
 curvature:  -0.03 expect dE=-0.102E-03 dE for cont linesearch -0.514E-08
 ZBRENT: bisectioning
 opt :   0.4224  next Energy=  -614.745282 (dE=-0.464E+01)
 bond charge predicted
       N       E                     dE             d eps       ncg     rms          rms(c)
DAV:   1    -0.614745286443E+03    0.98051E-06   -0.52043E-05  7356   0.535E-03    0.453E-02
DAV:   2    -0.614745827446E+03   -0.54100E-03   -0.10508E-03 15720   0.570E-02    0.154E-01
DAV:   3    -0.614745289731E+03    0.53772E-03   -0.17603E-04 14572   0.514E-02    0.496E-02
DAV:   4    -0.614745282039E+03    0.76919E-05   -0.21570E-05 10728   0.970E-03
  15 F= -.61474528E+03 E0= -.61474528E+03  d E =-.463910E+01
 curvature:  -0.01 expect dE=-0.454E-04 dE for cont linesearch -0.210E-08
 ZBRENT: bisectioning
 opt :   0.4224  next Energy=  -614.745282 (dE=-0.464E+01)
 bond charge predicted
       N       E                     dE             d eps       ncg     rms          rms(c)
DAV:   1    -0.614745283687E+03    0.60435E-05   -0.45398E-06  7404   0.503E-03    0.338E-02
DAV:   2    -0.614746681263E+03   -0.13976E-02   -0.14358E-02 15576   0.438E-02    0.475E-01
DAV:   3    -0.614745334389E+03    0.13469E-02   -0.20136E-03 13876   0.411E-02    0.112E-01
DAV:   4    -0.614745284219E+03    0.50170E-04   -0.19245E-04  9956   0.860E-03    0.322E-02
DAV:   5    -0.614745285881E+03   -0.16623E-05   -0.21639E-05  7212   0.500E-03
  16 F= -.61474529E+03 E0= -.61474529E+03  d E =-.463910E+01
 curvature:  -0.01 expect dE=-0.237E-04 dE for cont linesearch -0.138E-09
 trial: gam= 0.00012 g(F)=  0.292E-03 g(S)=  0.326E-02 ort = 0.689E-03 (trialstep = 0.884E+00)
 search vector abs. value=  0.355E-02
 bond charge predicted
       N       E                     dE             d eps       ncg     rms          rms(c)
DAV:   1    -0.614753580930E+03   -0.82967E-02   -0.45620E-01 11944   0.146E+00    0.633E-01
DAV:   2    -0.614785898853E+03   -0.32318E-01   -0.36616E-01 16688   0.739E-01    0.119E+00
DAV:   3    -0.614750585300E+03    0.35314E-01   -0.44158E-02 15988   0.513E-01    0.388E-01
DAV:   4    -0.614751889307E+03   -0.13040E-02   -0.71705E-02 16648   0.286E-01    0.533E-01
DAV:   5    -0.614747730890E+03    0.41584E-02   -0.16639E-02 15000   0.184E-01    0.191E-01
DAV:   6    -0.614747619118E+03    0.11177E-03   -0.59372E-04 16184   0.466E-02    0.173E-01
DAV:   7    -0.614747749797E+03   -0.13068E-03   -0.36055E-04 14424   0.375E-02    0.173E-01
DAV:   8    -0.614747461955E+03    0.28784E-03   -0.10933E-04 14056   0.276E-02    0.145E-01
DAV:   9    -0.614747696238E+03   -0.23428E-03   -0.39524E-03 14108   0.323E-02    0.395E-01
DAV:  10    -0.614747428893E+03    0.26734E-03   -0.35274E-03 11868   0.243E-02    0.744E-02
DAV:  11    -0.614747391025E+03    0.37869E-04   -0.89178E-06  7488   0.693E-03    0.715E-02
DAV:  12    -0.614747390819E+03    0.20572E-06   -0.23963E-06  6936   0.455E-03
  17 F= -.61474739E+03 E0= -.61474739E+03  d E =-.210494E-02
 trial-energy change:   -0.002105  1 .order   -0.001565   -0.003142    0.000012
 step:   0.8828(harm=  0.8812)  dis= 0.00087  next Energy=  -614.747391 (dE=-0.210E-02)
 bond charge predicted
       N       E                     dE             d eps       ncg     rms          rms(c)
DAV:   1    -0.614747384514E+03    0.65112E-05   -0.31238E-06  6884   0.452E-03    0.681E-02
DAV:   2    -0.614750583463E+03   -0.31989E-02   -0.32565E-02 16800   0.922E-02    0.510E-01
DAV:   3    -0.614747450802E+03    0.31327E-02   -0.17812E-03 16280   0.852E-02    0.182E-01
DAV:   4    -0.614747394069E+03    0.56733E-04   -0.56177E-04 12736   0.133E-02    0.595E-02
DAV:   5    -0.614747391659E+03    0.24103E-05   -0.43867E-04  8452   0.899E-03    0.662E-02
DAV:   6    -0.614747378763E+03    0.12896E-04   -0.32726E-05  7200   0.821E-03    0.309E-02
DAV:   7    -0.614747373663E+03    0.50997E-05   -0.28834E-06  6896   0.295E-03
  18 F= -.61474737E+03 E0= -.61474737E+03  d E =-.208778E-02
 curvature:  -0.33 expect dE=-0.102E-03 dE for cont linesearch -0.967E-06
 ZBRENT: interpolating
 opt :   0.8581  next Energy=  -614.747375 (dE=-0.209E-02)
 bond charge predicted
       N       E                     dE             d eps       ncg     rms          rms(c)
DAV:   1    -0.614747372352E+03    0.64110E-05   -0.67826E-04 12112   0.411E-02    0.263E-01
DAV:   2    -0.614762735454E+03   -0.15363E-01   -0.15902E-01 17264   0.399E-01    0.771E-01
DAV:   3    -0.614748616343E+03    0.14119E-01   -0.17532E-02 16476   0.298E-01    0.268E-01
DAV:   4    -0.614747315230E+03    0.13011E-02   -0.71047E-03 16888   0.112E-01    0.952E-02
DAV:   5    -0.614747374485E+03   -0.59256E-04   -0.25156E-04 14552   0.317E-02    0.143E-01
DAV:   6    -0.614747397657E+03   -0.23172E-04   -0.26773E-05 10648   0.105E-02    0.141E-01
DAV:   7    -0.614747397085E+03    0.57243E-06   -0.57548E-06  7220   0.639E-03
  19 F= -.61474740E+03 E0= -.61474740E+03  d E =-.211120E-02
 curvature:  -0.43 expect dE=-0.483E-03 dE for cont linesearch -0.131E-04
 ZBRENT: bisectioning
 opt :   0.4291  next Energy=  -614.748382 (dE=-0.310E-02)
 bond charge predicted
       N       E                     dE             d eps       ncg     rms          rms(c)
DAV:   1    -0.614747887506E+03   -0.48985E-03   -0.10556E-01 11968   0.708E-01    0.252E-01
DAV:   2    -0.614754105325E+03   -0.62178E-02   -0.66169E-02 16040   0.250E-01    0.634E-01
DAV:   3    -0.614747060420E+03    0.70449E-02   -0.75364E-03 15712   0.181E-01    0.136E-01
DAV:   4    -0.614746694204E+03    0.36622E-03   -0.17924E-03 14148   0.838E-02    0.162E-01
DAV:   5    -0.614746709046E+03   -0.14842E-04   -0.18925E-03 15660   0.368E-02    0.121E-01
DAV:   6    -0.614746856409E+03   -0.14736E-03   -0.24381E-03 13728   0.315E-02    0.385E-01
DAV:   7    -0.614746721279E+03    0.13513E-03   -0.43304E-03 12496   0.209E-02    0.639E-02
DAV:   8    -0.614746683964E+03    0.37315E-04   -0.25811E-05  9484   0.128E-02    0.459E-02
DAV:   9    -0.614746683679E+03    0.28504E-06   -0.30637E-05  7084   0.650E-03
  20 F= -.61474668E+03 E0= -.61474668E+03  d E =-.139780E-02
 curvature: -32.32 expect dE=-0.301E-01 dE for cont linesearch -0.299E-01
 ZBRENT: interpolating
 opt :   0.7922  next Energy=  -614.747408 (dE=-0.212E-02)
 bond charge predicted
       N       E                     dE             d eps       ncg     rms          rms(c)
DAV:   1    -0.614748461468E+03   -0.17775E-02   -0.77614E-02 11960   0.600E-01    0.419E-01
DAV:   2    -0.614776604266E+03   -0.28143E-01   -0.27646E-01 17072   0.588E-01    0.104E+00
DAV:   3    -0.614749627944E+03    0.26976E-01   -0.29797E-02 16248   0.420E-01    0.339E-01
DAV:   4    -0.614748060377E+03    0.15676E-02   -0.23570E-02 16880   0.179E-01    0.407E-01
DAV:   5    -0.614747953904E+03    0.10647E-03   -0.21822E-02 14872   0.103E-01    0.192E-01
DAV:   6    -0.614747922429E+03    0.31475E-04   -0.17867E-04 15968   0.260E-02    0.186E-01
DAV:   7    -0.614747934676E+03   -0.12247E-04   -0.54760E-05 11560   0.165E-02    0.174E-01
DAV:   8    -0.614747968405E+03   -0.33729E-04   -0.29065E-04 14168   0.215E-02    0.183E-01
DAV:   9    -0.614747595784E+03    0.37262E-03   -0.11532E-03 12468   0.292E-02    0.158E-01
DAV:  10    -0.614747618282E+03   -0.22499E-04   -0.92412E-06  7476   0.676E-03    0.159E-01
DAV:  11    -0.614747630335E+03   -0.12053E-04   -0.28355E-06  7036   0.514E-03    0.159E-01
DAV:  12    -0.614747585150E+03    0.45185E-04   -0.13701E-05  7864   0.967E-03    0.150E-01
DAV:  13    -0.614747358730E+03    0.22642E-03   -0.36979E-04 15264   0.370E-02    0.180E-01
DAV:  14    -0.614747351149E+03    0.75810E-05   -0.37449E-04 11884   0.110E-02    0.661E-02
DAV:  15    -0.614747357838E+03   -0.66892E-05   -0.31849E-04  7196   0.510E-03    0.204E-01
DAV:  16    -0.614747389537E+03   -0.31699E-04   -0.39104E-03 11848   0.208E-02    0.135E-01
DAV:  17    -0.614747332544E+03    0.56993E-04   -0.15854E-05  7904   0.102E-02    0.765E-02
DAV:  18    -0.614747339775E+03   -0.72315E-05   -0.37602E-06  6696   0.639E-03
  21 F= -.61474734E+03 E0= -.61474734E+03  d E =-.205389E-02
 curvature:  -0.01 expect dE=-0.127E-04 dE for cont linesearch -0.842E-07
 trial: gam= 0.26115 g(F)=  0.102E-02 g(S)=  0.659E-04 ort = 0.160E-03 (trialstep = 0.866E+00)
 search vector abs. value=  0.141E-02
 bond charge predicted
       N       E                     dE             d eps       ncg     rms          rms(c)
DAV:   1    -0.614747533031E+03   -0.20049E-03   -0.20206E-01 12216   0.969E-01    0.242E-01
DAV:   2    -0.614751970438E+03   -0.44374E-02   -0.50878E-02 15736   0.307E-01    0.627E-01
DAV:   3    -0.614747766068E+03    0.42044E-02   -0.36881E-02 15472   0.197E-01    0.154E-01
DAV:   4    -0.614747232220E+03    0.53385E-03   -0.67732E-04 15568   0.683E-02    0.974E-02
DAV:   5    -0.614747052792E+03    0.17943E-03   -0.23810E-04 16176   0.344E-02    0.546E-02
DAV:   6    -0.614747013667E+03    0.39124E-04   -0.53021E-05 13168   0.154E-02    0.481E-02
DAV:   7    -0.614746981201E+03    0.32466E-04    0.11678E-05  7744   0.115E-02    0.390E-02
DAV:   8    -0.614746978717E+03    0.24840E-05   -0.21763E-05  9888   0.108E-02
  22 F= -.61474698E+03 E0= -.61474698E+03  d E =0.361058E-03
 trial-energy change:    0.000361  1 .order   -0.000081   -0.000978    0.000816
 step:   0.4721(harm=  0.4721)  dis= 0.00072  next Energy=  -614.747606 (dE=-0.266E-03)
 bond charge predicted
       N       E                     dE             d eps       ncg     rms          rms(c)
DAV:   1    -0.614747581578E+03   -0.60038E-03   -0.45253E-02 12268   0.441E-01    0.464E-01
DAV:   2    -0.614783753542E+03   -0.36172E-01   -0.34311E-01 16872   0.673E-01    0.117E+00
DAV:   3    -0.614749335591E+03    0.34418E-01   -0.55982E-02 16244   0.483E-01    0.314E-01
DAV:   4    -0.614747244282E+03    0.20913E-02   -0.12913E-02 16616   0.163E-01    0.128E-01
DAV:   5    -0.614747405962E+03   -0.16168E-03   -0.57616E-04 14852   0.526E-02    0.108E-01
DAV:   6    -0.614747379724E+03    0.26238E-04   -0.12448E-04 14880   0.222E-02    0.919E-02
DAV:   7    -0.614747344559E+03    0.35165E-04   -0.58006E-05 12772   0.181E-02    0.705E-02
DAV:   8    -0.614747617159E+03   -0.27260E-03   -0.22638E-03 14456   0.372E-02    0.412E-01
DAV:   9    -0.614747372046E+03    0.24511E-03   -0.14326E-03 11148   0.147E-02    0.517E-02
DAV:  10    -0.614747405759E+03   -0.33712E-04   -0.57508E-04  7272   0.637E-03    0.261E-01
DAV:  11    -0.614747334411E+03    0.71348E-04   -0.91232E-04  7180   0.832E-03    0.471E-02
DAV:  12    -0.614747297324E+03    0.37086E-04   -0.77283E-06  7052   0.787E-03    0.434E-02
DAV:  13    -0.614747273399E+03    0.23926E-04   -0.94105E-06  7300   0.789E-03    0.414E-02
DAV:  14    -0.614747276380E+03   -0.29811E-05   -0.43375E-06  6724   0.647E-03
  23 F= -.61474728E+03 E0= -.61474728E+03  d E =0.633952E-04
 curvature:  -0.30 expect dE=-0.126E-04 dE for cont linesearch -0.801E-05
 trial: gam= 0.00000 g(F)=  0.177E-04 g(S)=  0.249E-04 ort =-0.196E-03 (trialstep = 0.787E+00)
 search vector abs. value=  0.426E-04
 reached required accuracy - stopping structural energy minimisation
 writing wavefunctions
