 running on  100 total cores
 distrk:  each k-point on  100 cores,    1 groups
 distr:  one band on   25 cores,    4 groups
 using from now: INCAR     
 vasp.5.4.4.18Apr17-6-g9f103f2a35 (build May 23 2017 16:08:52) complex          
  
 POSCAR found :  4 types and      75 ions
 scaLAPACK will be used

 ----------------------------------------------------------------------------- 
|                                                                             |
|           W    W    AA    RRRRR   N    N  II  N    N   GGGG   !!!           |
|           W    W   A  A   R    R  NN   N  II  NN   N  G    G  !!!           |
|           W    W  A    A  R    R  N N  N  II  N N  N  G       !!!           |
|           W WW W  AAAAAA  RRRRR   N  N N  II  N  N N  G  GGG   !            |
|           WW  WW  A    A  R   R   N   NN  II  N   NN  G    G                |
|           W    W  A    A  R    R  N    N  II  N    N   GGGG   !!!           |
|                                                                             |
|      For optimal performance we recommend to set                            |
|        NCORE= 4 - approx SQRT( number of cores)                             |
|      NCORE specifies how many cores store one orbital (NPAR=cpu/NCORE).     |
|      This setting can  greatly improve the performance of VASP for DFT.     |
|      The default,   NCORE=1            might be grossly inefficient         |
|      on modern multi-core architectures or massively parallel machines.     |
|      Do your own testing !!!!                                               |
|      Unfortunately you need to use the default for GW and RPA calculations. |
|      (for HF NCORE is supported but not extensively tested yet)             |
|                                                                             |
 ----------------------------------------------------------------------------- 


 ----------------------------------------------------------------------------- 
|                                                                             |
|  ADVICE TO THIS USER RUNNING 'VASP/VAMP'   (HEAR YOUR MASTER'S VOICE ...):  |
|                                                                             |
|      You have a (more or less) 'large supercell' and for larger cells       |
|      it might be more efficient to use real space projection opertators     |
|      So try LREAL= Auto  in the INCAR   file.                               |
|      Mind:          For very  accurate calculation you might also keep the  |
|      reciprocal projection scheme          (i.e. LREAL=.FALSE.)             |
|                                                                             |
 ----------------------------------------------------------------------------- 

 LDA part: xc-table for Pade appr. of Perdew
 POSCAR, INCAR and KPOINTS ok, starting setup
 FFT: planning ...
 WAVECAR not read
 entering main loop
       N       E                     dE             d eps       ncg     rms          rms(c)
DAV:   1     0.805948056510E+04    0.80595E+04   -0.29274E+05 11520   0.178E+03
DAV:   2     0.967642769936E+03   -0.70918E+04   -0.66988E+04 11568   0.547E+02
DAV:   3    -0.613905184438E+03   -0.15815E+04   -0.15190E+04 14704   0.235E+02
DAV:   4    -0.743936100935E+03   -0.13003E+03   -0.12935E+03 16328   0.744E+01
DAV:   5    -0.753729460179E+03   -0.97934E+01   -0.97715E+01 20840   0.171E+01    0.987E+01
DAV:   6    -0.600619174658E+03    0.15311E+03   -0.89218E+02 16080   0.732E+01    0.580E+01
DAV:   7    -0.603509661661E+03   -0.28905E+01   -0.15165E+02 16024   0.263E+01    0.394E+01
DAV:   8    -0.609623765820E+03   -0.61141E+01   -0.62856E+01 16360   0.213E+01    0.234E+01
DAV:   9    -0.602701474124E+03    0.69223E+01   -0.26582E+01 15888   0.153E+01    0.482E+00
DAV:  10    -0.602543508422E+03    0.15797E+00   -0.25063E+00 16696   0.427E+00    0.261E+00
DAV:  11    -0.602546077578E+03   -0.25692E-02   -0.74383E-01 16304   0.180E+00    0.180E+00
DAV:  12    -0.602557379225E+03   -0.11302E-01   -0.16544E-01 16128   0.134E+00    0.779E-01
DAV:  13    -0.602551084529E+03    0.62947E-02   -0.40976E-02 16528   0.619E-01    0.381E-01
DAV:  14    -0.602552652602E+03   -0.15681E-02   -0.12293E-02 17600   0.356E-01    0.211E-01
DAV:  15    -0.602552524827E+03    0.12777E-03   -0.37007E-03 16368   0.156E-01    0.125E-01
DAV:  16    -0.602553237590E+03   -0.71276E-03   -0.22927E-03 16752   0.122E-01    0.823E-02
DAV:  17    -0.602552754939E+03    0.48265E-03   -0.78633E-04 16504   0.561E-02    0.601E-02
DAV:  18    -0.602552942879E+03   -0.18794E-03   -0.33758E-04 14000   0.250E-02    0.452E-02
DAV:  19    -0.602552811356E+03    0.13152E-03   -0.14798E-04  8640   0.157E-02    0.489E-02
DAV:  20    -0.602552851476E+03   -0.40120E-04   -0.27971E-04  7048   0.129E-02    0.411E-02
DAV:  21    -0.602552828521E+03    0.22955E-04   -0.46295E-06  6440   0.770E-03    0.345E-02
DAV:  22    -0.602552795214E+03    0.33308E-04   -0.16097E-05  6312   0.404E-03    0.456E-02
DAV:  23    -0.602552794468E+03    0.74593E-06   -0.12311E-04  6352   0.345E-03    0.355E-02
DAV:  24    -0.602552799709E+03   -0.52413E-05   -0.61833E-05  6328   0.303E-03
   1 F= -.60255280E+03 E0= -.60255280E+03  d E =-.602553E+03
 curvature:   0.00 expect dE= 0.000E+00 dE for cont linesearch  0.000E+00
 trial: gam= 0.00000 g(F)=  0.486E+00 g(S)=  0.878E-01 ort = 0.000E+00 (trialstep = 0.100E+01)
 search vector abs. value=  0.574E+00
 bond charge predicted
       N       E                     dE             d eps       ncg     rms          rms(c)
DAV:   1    -0.602204371875E+03    0.34842E+00   -0.86243E+01 14056   0.326E+01    0.661E+00
DAV:   2    -0.602897517123E+03   -0.69315E+00   -0.14641E+01 12704   0.836E+00    0.369E+00
DAV:   3    -0.602849914422E+03    0.47603E-01   -0.15373E+00 16800   0.269E+00    0.195E+00
DAV:   4    -0.602811425297E+03    0.38489E-01   -0.32176E-01 16952   0.168E+00    0.117E+00
DAV:   5    -0.602812766618E+03   -0.13413E-02   -0.10790E-01 16360   0.911E-01    0.828E-01
DAV:   6    -0.602808066036E+03    0.47006E-02   -0.26409E-02 18432   0.486E-01    0.643E-01
DAV:   7    -0.602813195488E+03   -0.51295E-02   -0.13255E-02 17824   0.372E-01    0.503E-01
DAV:   8    -0.602812538034E+03    0.65745E-03   -0.11312E-02 17736   0.412E-01    0.258E-01
DAV:   9    -0.602812449080E+03    0.88954E-04   -0.42073E-03 17040   0.193E-01    0.909E-02
DAV:  10    -0.602812808912E+03   -0.35983E-03   -0.85238E-04 17848   0.735E-02    0.525E-02
DAV:  11    -0.602812802918E+03    0.59939E-05   -0.13554E-04 15088   0.328E-02    0.280E-02
DAV:  12    -0.602812808877E+03   -0.59587E-05   -0.28004E-05  9400   0.190E-02
   2 F= -.60281281E+03 E0= -.60281281E+03  d E =-.260009E+00
 trial-energy change:   -0.260009  1 .order   -0.240378   -0.574149    0.093393
 step:   0.8789(harm=  0.8601)  dis= 0.04949  next Energy=  -602.818430 (dE=-0.266E+00)
 bond charge predicted
       N       E                     dE             d eps       ncg     rms          rms(c)
DAV:   1    -0.602809123283E+03    0.36796E-02   -0.12720E+00 14328   0.403E+00    0.802E-01
DAV:   2    -0.602818745267E+03   -0.96220E-02   -0.20846E-01 12664   0.987E-01    0.441E-01
DAV:   3    -0.602817037871E+03    0.17074E-02   -0.19876E-02 16736   0.300E-01    0.211E-01
DAV:   4    -0.602817017636E+03    0.20235E-04   -0.36962E-03 17232   0.169E-01    0.130E-01
DAV:   5    -0.602816797102E+03    0.22053E-03   -0.96508E-04 17312   0.890E-02    0.808E-02
DAV:   6    -0.602816854424E+03   -0.57322E-04   -0.24857E-04 17520   0.432E-02    0.657E-02
DAV:   7    -0.602816999973E+03   -0.14555E-03   -0.28851E-04 14560   0.522E-02    0.575E-02
DAV:   8    -0.602816802481E+03    0.19749E-03   -0.23522E-04 12976   0.431E-02    0.232E-02
DAV:   9    -0.602816894479E+03   -0.91998E-04   -0.41225E-05  9728   0.200E-02    0.103E-02
DAV:  10    -0.602816871134E+03    0.23345E-04   -0.12538E-05  6712   0.110E-02    0.479E-03
DAV:  11    -0.602816871766E+03   -0.63171E-06   -0.57495E-06  6192   0.685E-03
   3 F= -.60281687E+03 E0= -.60281687E+03  d E =-.264072E+00
 curvature:  -0.42 expect dE=-0.538E-01 dE for cont linesearch -0.220E-03
 trial: gam= 0.25208 g(F)=  0.881E-01 g(S)=  0.394E-01 ort =-0.173E-01 (trialstep = 0.976E+00)
 search vector abs. value=  0.155E+00
 bond charge predicted
       N       E                     dE             d eps       ncg     rms          rms(c)
DAV:   1    -0.602841554854E+03   -0.24684E-01   -0.20883E+01 13648   0.132E+01    0.294E+00
DAV:   2    -0.602911538910E+03   -0.69984E-01   -0.18981E+00 13080   0.311E+00    0.172E+00
DAV:   3    -0.602898538830E+03    0.13000E-01   -0.22770E-01 16912   0.111E+00    0.750E-01
DAV:   4    -0.602897187269E+03    0.13516E-02   -0.44753E-02 16968   0.689E-01    0.519E-01
DAV:   5    -0.602895357337E+03    0.18299E-02   -0.16177E-02 16672   0.425E-01    0.309E-01
DAV:   6    -0.602896225585E+03   -0.86825E-03   -0.39071E-03 17112   0.250E-01    0.244E-01
DAV:   7    -0.602896524100E+03   -0.29852E-03   -0.27730E-03 17600   0.177E-01    0.173E-01
DAV:   8    -0.602896578069E+03   -0.53969E-04   -0.92640E-04 17120   0.971E-02    0.660E-02
DAV:   9    -0.602896543472E+03    0.34597E-04    0.11238E-04 17912   0.515E-02    0.413E-02
DAV:  10    -0.602896481558E+03    0.61914E-04   -0.69279E-05 13824   0.237E-02    0.361E-02
DAV:  11    -0.602896489047E+03   -0.74888E-05   -0.17681E-05  8208   0.129E-02
   4 F= -.60289649E+03 E0= -.60289649E+03  d E =-.796173E-01
 trial-energy change:   -0.079617  1 .order   -0.069641   -0.120112   -0.019171
 step:   1.0874(harm=  1.1611)  dis= 0.02699  next Energy=  -602.897600 (dE=-0.807E-01)
 bond charge predicted
       N       E                     dE             d eps       ncg     rms          rms(c)
DAV:   1    -0.602897311532E+03   -0.82997E-03   -0.27205E-01 13504   0.152E+00    0.338E-01
DAV:   2    -0.602898694245E+03   -0.13827E-02   -0.24585E-02 13240   0.376E-01    0.202E-01
DAV:   3    -0.602898265093E+03    0.42915E-03   -0.40443E-03 16928   0.188E-01    0.124E-01
DAV:   4    -0.602898638393E+03   -0.37330E-03   -0.16002E-03 15648   0.168E-01    0.809E-02
DAV:   5    -0.602898350863E+03    0.28753E-03   -0.49843E-04 17072   0.103E-01    0.409E-02
DAV:   6    -0.602898380208E+03   -0.29345E-04   -0.12138E-04 13504   0.351E-02    0.326E-02
DAV:   7    -0.602898416798E+03   -0.36590E-04   -0.26132E-05  9560   0.151E-02    0.255E-02
DAV:   8    -0.602898378699E+03    0.38099E-04   -0.14882E-05  7088   0.155E-02    0.900E-03
DAV:   9    -0.602898421271E+03   -0.42572E-04   -0.89768E-06  6520   0.125E-02    0.429E-03
DAV:  10    -0.602898412541E+03    0.87297E-05   -0.53036E-06  6136   0.736E-03
   5 F= -.60289841E+03 E0= -.60289841E+03  d E =-.815408E-01
 curvature:  -0.62 expect dE=-0.247E-01 dE for cont linesearch -0.145E-03
 trial: gam= 0.21712 g(F)=  0.347E-01 g(S)=  0.535E-02 ort = 0.605E-02 (trialstep = 0.998E+00)
 search vector abs. value=  0.500E-01
 bond charge predicted
       N       E                     dE             d eps       ncg     rms          rms(c)
DAV:   1    -0.602877085086E+03    0.21336E-01   -0.73713E+00 13032   0.791E+00    0.121E+00
DAV:   2    -0.602923943786E+03   -0.46859E-01   -0.70071E-01 12776   0.177E+00    0.818E-01
DAV:   3    -0.602924936796E+03   -0.99301E-03   -0.58609E-02 18312   0.632E-01    0.454E-01
DAV:   4    -0.602922170684E+03    0.27661E-02   -0.14957E-02 16000   0.501E-01    0.325E-01
DAV:   5    -0.602922647237E+03   -0.47655E-03   -0.49076E-03 16448   0.298E-01    0.156E-01
DAV:   6    -0.602922779719E+03   -0.13248E-03   -0.15086E-03 18080   0.134E-01    0.113E-01
DAV:   7    -0.602922795363E+03   -0.15644E-04   -0.37276E-04 15904   0.642E-02    0.801E-02
DAV:   8    -0.602922822431E+03   -0.27067E-04   -0.16737E-04 16792   0.436E-02    0.237E-02
DAV:   9    -0.602922854530E+03   -0.32099E-04   -0.50827E-05 11568   0.228E-02    0.942E-03
DAV:  10    -0.602922835502E+03    0.19028E-04   -0.14164E-05  6872   0.146E-02    0.751E-03
DAV:  11    -0.602922855023E+03   -0.19521E-04   -0.59973E-06  6216   0.813E-03    0.361E-03
DAV:  12    -0.602922853380E+03    0.16423E-05   -0.29009E-06  6160   0.558E-03
   6 F= -.60292285E+03 E0= -.60292285E+03  d E =-.244408E-01
 trial-energy change:   -0.024441  1 .order   -0.024305   -0.041269   -0.007341
 step:   1.2079(harm=  1.2140)  dis= 0.01541  next Energy=  -602.923626 (dE=-0.252E-01)
 bond charge predicted
       N       E                     dE             d eps       ncg     rms          rms(c)
DAV:   1    -0.602921934749E+03    0.92027E-03   -0.32569E-01 13056   0.167E+00    0.254E-01
DAV:   2    -0.602923557878E+03   -0.16231E-02   -0.30915E-02 12816   0.373E-01    0.169E-01
DAV:   3    -0.602923802683E+03   -0.24480E-03   -0.25940E-03 18232   0.130E-01    0.904E-02
DAV:   4    -0.602923347929E+03    0.45475E-03   -0.44914E-04 16320   0.876E-02    0.604E-02
DAV:   5    -0.602923667800E+03   -0.31987E-03   -0.22892E-04 15136   0.685E-02    0.310E-02
DAV:   6    -0.602923603089E+03    0.64710E-04   -0.47165E-05 11360   0.308E-02    0.216E-02
DAV:   7    -0.602923590289E+03    0.12800E-04   -0.15099E-05  7696   0.145E-02    0.147E-02
DAV:   8    -0.602923601489E+03   -0.11200E-04   -0.83329E-06  6600   0.117E-02    0.422E-03
DAV:   9    -0.602923596062E+03    0.54274E-05   -0.45749E-06  6176   0.705E-03
   7 F= -.60292360E+03 E0= -.60292360E+03  d E =-.251835E-01
 curvature:  -0.73 expect dE=-0.115E-01 dE for cont linesearch -0.226E-05
 trial: gam= 0.43465 g(F)=  0.142E-01 g(S)=  0.155E-02 ort = 0.393E-03 (trialstep = 0.104E+01)
 search vector abs. value=  0.255E-01
 bond charge predicted
       N       E                     dE             d eps       ncg     rms          rms(c)
DAV:   1    -0.602911380008E+03    0.12221E-01   -0.41544E+00 12800   0.555E+00    0.756E-01
DAV:   2    -0.602929067433E+03   -0.17687E-01   -0.28168E-01 13000   0.121E+00    0.573E-01
DAV:   3    -0.602930996233E+03   -0.19288E-02   -0.29312E-02 17416   0.444E-01    0.318E-01
DAV:   4    -0.602928325535E+03    0.26707E-02   -0.86095E-03 16720   0.355E-01    0.258E-01
DAV:   5    -0.602930363015E+03   -0.20375E-02   -0.36315E-03 15912   0.271E-01    0.116E-01
DAV:   6    -0.602929779567E+03    0.58345E-03   -0.87081E-04 17360   0.118E-01    0.710E-02
DAV:   7    -0.602929782224E+03   -0.26569E-05   -0.34068E-04 16616   0.540E-02    0.518E-02
DAV:   8    -0.602929632383E+03    0.14984E-03   -0.73606E-05 12408   0.350E-02    0.265E-02
DAV:   9    -0.602929802805E+03   -0.17042E-03   -0.31523E-05 10672   0.299E-02    0.115E-02
DAV:  10    -0.602929743860E+03    0.58945E-04   -0.10019E-05  7264   0.150E-02    0.419E-03
DAV:  11    -0.602929750439E+03   -0.65786E-05   -0.45134E-06  6208   0.684E-03
   8 F= -.60292975E+03 E0= -.60292975E+03  d E =-.615438E-02
 trial-energy change:   -0.006154  1 .order   -0.007337   -0.016546    0.001871
 step:   0.8830(harm=  0.9344)  dis= 0.00868  next Energy=  -602.929896 (dE=-0.630E-02)
 bond charge predicted
       N       E                     dE             d eps       ncg     rms          rms(c)
DAV:   1    -0.602929191374E+03    0.55249E-03   -0.94784E-02 12784   0.838E-01    0.115E-01
DAV:   2    -0.602930050646E+03   -0.85927E-03   -0.65363E-03 13056   0.188E-01    0.883E-02
DAV:   3    -0.602929785685E+03    0.26496E-03   -0.71788E-04 17240   0.739E-02    0.491E-02
DAV:   4    -0.602930147734E+03   -0.36205E-03   -0.10204E-04 14120   0.469E-02    0.344E-02
DAV:   5    -0.602929818423E+03    0.32931E-03   -0.68326E-05 10704   0.374E-02    0.179E-02
DAV:   6    -0.602929941478E+03   -0.12306E-03   -0.19699E-05  7904   0.204E-02    0.943E-03
DAV:   7    -0.602929943229E+03   -0.17513E-05   -0.76443E-06  6624   0.941E-03
   9 F= -.60292994E+03 E0= -.60292994E+03  d E =-.634717E-02
 curvature:  -0.57 expect dE=-0.241E-02 dE for cont linesearch -0.116E-04
 trial: gam= 0.20645 g(F)=  0.406E-02 g(S)=  0.148E-03 ort = 0.720E-03 (trialstep = 0.101E+01)
 search vector abs. value=  0.560E-02
 bond charge predicted
       N       E                     dE             d eps       ncg     rms          rms(c)
DAV:   1    -0.602924962008E+03    0.49795E-02   -0.86864E-01 13064   0.306E+00    0.328E-01
DAV:   2    -0.602933632523E+03   -0.86705E-02   -0.97675E-02 12680   0.677E-01    0.220E-01
DAV:   3    -0.602934060258E+03   -0.42774E-03   -0.77405E-03 16912   0.195E-01    0.129E-01
DAV:   4    -0.602933965139E+03    0.95119E-04   -0.91152E-04 16904   0.109E-01    0.773E-02
DAV:   5    -0.602933941959E+03    0.23180E-04   -0.43021E-04 14936   0.850E-02    0.510E-02
DAV:   6    -0.602933934260E+03    0.76994E-05   -0.19133E-04 15736   0.507E-02    0.264E-02
DAV:   7    -0.602934029885E+03   -0.95626E-04   -0.23774E-05  9560   0.295E-02    0.149E-02
DAV:   8    -0.602933964476E+03    0.65410E-04   -0.25058E-05  8472   0.178E-02    0.917E-03
DAV:   9    -0.602934010064E+03   -0.45589E-04   -0.75619E-06  6552   0.126E-02    0.487E-03
DAV:  10    -0.602933994342E+03    0.15722E-04   -0.32220E-06  6248   0.737E-03    0.313E-03
DAV:  11    -0.602933993731E+03    0.61121E-06   -0.21021E-06  6144   0.457E-03
  10 F= -.60293399E+03 E0= -.60293399E+03  d E =-.405050E-02
 trial-energy change:   -0.004051  1 .order   -0.002441   -0.004398   -0.000484
 step:   1.0437(harm=  1.1333)  dis= 0.00407  next Energy=  -602.934002 (dE=-0.406E-02)
 bond charge predicted
       N       E                     dE             d eps       ncg     rms          rms(c)
DAV:   1    -0.602934005172E+03   -0.10830E-04   -0.10491E-03 13056   0.107E-01    0.113E-02
DAV:   2    -0.602934043411E+03   -0.38238E-04   -0.11900E-04 12392   0.245E-02    0.739E-03
DAV:   3    -0.602934024958E+03    0.18453E-04   -0.87118E-06  6624   0.931E-03    0.513E-03
DAV:   4    -0.602934045241E+03   -0.20283E-04   -0.32608E-06  6360   0.788E-03    0.346E-03
DAV:   5    -0.602934032650E+03    0.12591E-04   -0.16817E-06  6128   0.561E-03    0.156E-03
DAV:   6    -0.602934034841E+03   -0.21915E-05   -0.98282E-07  6048   0.338E-03
  11 F= -.60293403E+03 E0= -.60293403E+03  d E =-.409161E-02
 curvature:  -0.35 expect dE=-0.624E-03 dE for cont linesearch -0.828E-05
 ZBRENT: increasing intervall
 opt :   1.1139  next Energy=  -602.934052 (dE=-0.411E-02)
 bond charge predicted
       N       E                     dE             d eps       ncg     rms          rms(c)
DAV:   1    -0.602934023893E+03    0.87567E-05   -0.41828E-03 13056   0.214E-01    0.225E-02
DAV:   2    -0.602934127168E+03   -0.10328E-03   -0.48114E-04 12904   0.484E-02    0.156E-02
DAV:   3    -0.602934092107E+03    0.35061E-04   -0.42451E-05 11448   0.193E-02    0.111E-02
DAV:   4    -0.602934127266E+03   -0.35159E-04   -0.88831E-06  6928   0.136E-02    0.722E-03
DAV:   5    -0.602934105217E+03    0.22049E-04   -0.47902E-06  6344   0.101E-02    0.314E-03
DAV:   6    -0.602934111923E+03   -0.67061E-05   -0.26342E-06  6064   0.597E-03
  12 F= -.60293411E+03 E0= -.60293411E+03  d E =-.416869E-02
 curvature:  -0.73 expect dE=-0.144E-02 dE for cont linesearch -0.207E-05
 trial: gam= 0.47368 g(F)=  0.181E-02 g(S)=  0.145E-03 ort = 0.126E-03 (trialstep = 0.103E+01)
 search vector abs. value=  0.333E-02
 bond charge predicted
       N       E                     dE             d eps       ncg     rms          rms(c)
DAV:   1    -0.602932032506E+03    0.20727E-02   -0.66051E-01 12600   0.237E+00    0.257E-01
DAV:   2    -0.602935801312E+03   -0.37688E-02   -0.48097E-02 12656   0.481E-01    0.178E-01
DAV:   3    -0.602935941937E+03   -0.14062E-03   -0.30267E-03 18736   0.155E-01    0.106E-01
DAV:   4    -0.602935603811E+03    0.33813E-03   -0.71982E-04 16504   0.110E-01    0.729E-02
DAV:   5    -0.602935805088E+03   -0.20128E-03   -0.35440E-04 15592   0.807E-02    0.416E-02
DAV:   6    -0.602935685819E+03    0.11927E-03   -0.13792E-04 14408   0.449E-02    0.258E-02
DAV:   7    -0.602935723964E+03   -0.38145E-04   -0.33253E-05 10480   0.191E-02    0.177E-02
DAV:   8    -0.602935706074E+03    0.17889E-04   -0.98752E-06  6672   0.131E-02    0.896E-03
DAV:   9    -0.602935712080E+03   -0.60057E-05   -0.68370E-06  6544   0.108E-02
  13 F= -.60293571E+03 E0= -.60293571E+03  d E =-.160016E-02
 trial-energy change:   -0.001600  1 .order   -0.001292   -0.002074   -0.000509
 step:   1.1725(harm=  1.3649)  dis= 0.00283  next Energy=  -602.935748 (dE=-0.164E-02)
 bond charge predicted
       N       E                     dE             d eps       ncg     rms          rms(c)
DAV:   1    -0.602935739154E+03   -0.33080E-04   -0.12666E-02 12616   0.329E-01    0.355E-02
DAV:   2    -0.602935797131E+03   -0.57977E-04   -0.93175E-04 12856   0.666E-02    0.227E-02
DAV:   3    -0.602935803470E+03   -0.63390E-05   -0.58451E-05 13896   0.186E-02
  14 F= -.60293580E+03 E0= -.60293580E+03  d E =-.169155E-02
 curvature:  -0.76 expect dE=-0.157E-02 dE for cont linesearch -0.211E-04
 trial: gam= 0.80437 g(F)=  0.206E-02 g(S)=  0.203E-04 ort = 0.305E-03 (trialstep = 0.746E+00)
 search vector abs. value=  0.472E-02
 bond charge predicted
       N       E                     dE             d eps       ncg     rms          rms(c)
DAV:   1    -0.602935324940E+03    0.47219E-03   -0.58224E-01 12320   0.182E+00    0.168E-01
DAV:   2    -0.602936487240E+03   -0.11623E-02   -0.20831E-02 12648   0.349E-01    0.150E-01
DAV:   3    -0.602936013195E+03    0.47405E-03   -0.16294E-03 18056   0.121E-01    0.996E-02
DAV:   4    -0.602936108066E+03   -0.94871E-04   -0.70745E-04 15584   0.908E-02    0.735E-02
DAV:   5    -0.602935740239E+03    0.36783E-03   -0.34318E-04 14424   0.752E-02    0.462E-02
DAV:   6    -0.602936063145E+03   -0.32291E-03   -0.53364E-04 15264   0.538E-02    0.278E-02
DAV:   7    -0.602935881930E+03    0.18121E-03   -0.10950E-05 11128   0.331E-02    0.154E-02
DAV:   8    -0.602935802941E+03    0.78989E-04   -0.18763E-05  7872   0.175E-02    0.105E-02
DAV:   9    -0.602935753385E+03    0.49556E-04   -0.57119E-05  6808   0.117E-02    0.257E-02
DAV:  10    -0.602935808231E+03   -0.54845E-04   -0.57046E-05  6400   0.116E-02    0.711E-03
DAV:  11    -0.602935793404E+03    0.14827E-04   -0.23920E-06  6160   0.610E-03    0.432E-03
DAV:  12    -0.602935797321E+03   -0.39169E-05   -0.16723E-06  6128   0.427E-03
  15 F= -.60293580E+03 E0= -.60293580E+03  d E =0.614958E-05
 trial-energy change:    0.000006  1 .order   -0.000969   -0.001734   -0.000204
 step:   0.8455(harm=  0.8455)  dis= 0.00238  next Energy=  -602.936786 (dE=-0.983E-03)
 bond charge predicted
       N       E                     dE             d eps       ncg     rms          rms(c)
DAV:   1    -0.602935800813E+03   -0.74088E-05   -0.10370E-02 12368   0.243E-01    0.226E-02
DAV:   2    -0.602935643180E+03    0.15763E-03   -0.61260E-04 12632   0.526E-02    0.393E-02
DAV:   3    -0.602935836906E+03   -0.19373E-03   -0.10286E-04 10920   0.327E-02    0.153E-02
DAV:   4    -0.602935766392E+03    0.70515E-04   -0.73351E-05  6824   0.132E-02    0.241E-02
DAV:   5    -0.602935841813E+03   -0.75422E-04   -0.78536E-05  6528   0.135E-02    0.117E-02
DAV:   6    -0.602935852371E+03   -0.10557E-04   -0.65981E-06  6312   0.726E-03    0.113E-02
DAV:   7    -0.602935837190E+03    0.15181E-04   -0.25450E-06  6048   0.597E-03    0.106E-02
DAV:   8    -0.602935822383E+03    0.14807E-04   -0.11306E-06  6000   0.388E-03    0.935E-03
DAV:   9    -0.602935811132E+03    0.11251E-04   -0.96061E-07  5992   0.294E-03    0.829E-03
DAV:  10    -0.602935794632E+03    0.16499E-04   -0.17718E-05  6024   0.279E-03    0.182E-02
DAV:  11    -0.602935804377E+03   -0.97448E-05   -0.22079E-06  5976   0.221E-03
  16 F= -.60293580E+03 E0= -.60293580E+03  d E =-.907006E-06
 curvature:  -0.86 expect dE=-0.126E-02 dE for cont linesearch -0.934E-06
 trial: gam= 0.72453 g(F)=  0.131E-02 g(S)=  0.150E-03 ort = 0.717E-04 (trialstep = 0.766E+00)
 search vector abs. value=  0.404E-02
 bond charge predicted
       N       E                     dE             d eps       ncg     rms          rms(c)
DAV:   1    -0.602933679425E+03    0.21152E-02   -0.48355E-01 12760   0.198E+00    0.212E-01
DAV:   2    -0.602936087598E+03   -0.24082E-02   -0.34928E-02 12672   0.409E-01    0.170E-01
DAV:   3    -0.602936940438E+03   -0.85284E-03   -0.32325E-03 18640   0.207E-01    0.114E-01
DAV:   4    -0.602936266037E+03    0.67440E-03   -0.16470E-03 16040   0.140E-01    0.828E-02
DAV:   5    -0.602936655225E+03   -0.38919E-03   -0.40857E-04 16160   0.823E-02    0.403E-02
DAV:   6    -0.602936630319E+03    0.24905E-04   -0.12630E-04 14568   0.447E-02    0.247E-02
DAV:   7    -0.602936696515E+03   -0.66196E-04   -0.31302E-05 10512   0.202E-02    0.179E-02
DAV:   8    -0.602936807491E+03   -0.11098E-03   -0.12799E-04  6624   0.181E-02    0.270E-02
DAV:   9    -0.602936708223E+03    0.99268E-04   -0.50010E-05  6584   0.173E-02    0.838E-03
DAV:  10    -0.602936741919E+03   -0.33695E-04   -0.22336E-05  6512   0.944E-03    0.230E-02
DAV:  11    -0.602936686934E+03    0.54984E-04   -0.65669E-05  6344   0.906E-03    0.274E-03
DAV:  12    -0.602936705270E+03   -0.18336E-04    0.29369E-06  6184   0.543E-03    0.490E-03
DAV:  13    -0.602936709562E+03   -0.42914E-05   -0.11796E-06  6080   0.303E-03
  17 F= -.60293671E+03 E0= -.60293671E+03  d E =-.905184E-03
 trial-energy change:   -0.000905  1 .order   -0.000557   -0.001159    0.000045
 step:   0.7554(harm=  0.7375)  dis= 0.00195  next Energy=  -602.936710 (dE=-0.905E-03)
 bond charge predicted
       N       E                     dE             d eps       ncg     rms          rms(c)
DAV:   1    -0.602936716137E+03   -0.10867E-04   -0.90390E-05 11480   0.272E-02    0.542E-03
DAV:   2    -0.602936802096E+03   -0.85959E-04   -0.12179E-04  7160   0.148E-02    0.281E-02
DAV:   3    -0.602936726424E+03    0.75672E-04   -0.13313E-05  6568   0.136E-02    0.407E-03
DAV:   4    -0.602936737542E+03   -0.11119E-04   -0.13683E-05  6096   0.338E-03    0.228E-02
DAV:   5    -0.602936720626E+03    0.16917E-04   -0.18054E-05  6056   0.344E-03    0.400E-03
DAV:   6    -0.602936721668E+03   -0.10424E-05   -0.33040E-07  6032   0.149E-03
  18 F= -.60293672E+03 E0= -.60293672E+03  d E =-.917291E-03
 curvature:  -0.59 expect dE=-0.810E-03 dE for cont linesearch -0.176E-06
 trial: gam= 0.81742 g(F)=  0.136E-02 g(S)=  0.429E-05 ort =-0.346E-04 (trialstep = 0.764E+00)
 search vector abs. value=  0.401E-02
 bond charge predicted
       N       E                     dE             d eps       ncg     rms          rms(c)
DAV:   1    -0.602934194217E+03    0.25264E-02   -0.50768E-01 12752   0.203E+00    0.192E-01
DAV:   2    -0.602937153525E+03   -0.29593E-02   -0.34722E-02 12560   0.414E-01    0.138E-01
DAV:   3    -0.602937265772E+03   -0.11225E-03   -0.26607E-03 17112   0.132E-01    0.797E-02
DAV:   4    -0.602937071211E+03    0.19456E-03   -0.30943E-04 15520   0.909E-02    0.627E-02
DAV:   5    -0.602937418476E+03   -0.34726E-03   -0.15088E-04 16144   0.800E-02    0.596E-02
DAV:   6    -0.602937186553E+03    0.23192E-03   -0.10392E-04 13728   0.440E-02    0.408E-02
DAV:   7    -0.602936984557E+03    0.20200E-03   -0.33198E-04 12504   0.331E-02    0.325E-02
DAV:   8    -0.602937134254E+03   -0.14970E-03   -0.37879E-05 10568   0.304E-02    0.193E-02
DAV:   9    -0.602937205817E+03   -0.71562E-04   -0.63062E-05  6944   0.170E-02    0.114E-02
DAV:  10    -0.602937167498E+03    0.38319E-04   -0.99563E-06  6496   0.115E-02    0.168E-02
DAV:  11    -0.602937207017E+03   -0.39518E-04   -0.75411E-05  6416   0.905E-03    0.949E-03
DAV:  12    -0.602937194647E+03    0.12370E-04    0.18421E-06  6192   0.688E-03    0.121E-02
DAV:  13    -0.602937168375E+03    0.26272E-04   -0.11204E-05  6200   0.445E-03    0.156E-02
DAV:  14    -0.602937170707E+03   -0.23321E-05   -0.48858E-06  6072   0.299E-03
  19 F= -.60293717E+03 E0= -.60293717E+03  d E =-.449039E-03
 trial-energy change:   -0.000449  1 .order   -0.000360   -0.001022    0.000302
 step:   0.6332(harm=  0.5894)  dis= 0.00170  next Energy=  -602.937196 (dE=-0.474E-03)
 bond charge predicted
       N       E                     dE             d eps       ncg     rms          rms(c)
DAV:   1    -0.602937134691E+03    0.33684E-04   -0.14839E-02 12768   0.346E-01    0.347E-02
DAV:   2    -0.602936999426E+03    0.13527E-03   -0.13557E-03 13080   0.769E-02    0.438E-02
DAV:   3    -0.602937274036E+03   -0.27461E-03   -0.23217E-04 12792   0.506E-02    0.229E-02
DAV:   4    -0.602937207369E+03    0.66666E-04   -0.27628E-05  8416   0.193E-02    0.205E-02
DAV:   5    -0.602937304272E+03   -0.96902E-04   -0.14873E-04  7088   0.206E-02    0.141E-02
DAV:   6    -0.602937275116E+03    0.29156E-04   -0.86415E-06  6440   0.100E-02    0.103E-02
DAV:   7    -0.602937258514E+03    0.16602E-04   -0.28559E-06  6168   0.640E-03    0.851E-03
DAV:   8    -0.602937231823E+03    0.26691E-04    0.25816E-06  6304   0.564E-03    0.110E-02
DAV:   9    -0.602937195228E+03    0.36595E-04   -0.31252E-05  6440   0.546E-03    0.174E-02
DAV:  10    -0.602937224350E+03   -0.29122E-04   -0.23225E-05  6072   0.547E-03    0.107E-02
DAV:  11    -0.602937227657E+03   -0.33071E-05   -0.56463E-07  5968   0.213E-03
  20 F= -.60293723E+03 E0= -.60293723E+03  d E =-.505989E-03
 curvature:  -0.83 expect dE=-0.725E-03 dE for cont linesearch -0.692E-05
 ZBRENT: interpolating
 opt :   0.5569  next Energy=  -602.937235 (dE=-0.513E-03)
 bond charge predicted
       N       E                     dE             d eps       ncg     rms          rms(c)
DAV:   1    -0.602937210529E+03    0.13821E-04   -0.50602E-03 12760   0.202E-01    0.217E-02
DAV:   2    -0.602937036614E+03    0.17392E-03   -0.64785E-04 13968   0.512E-02    0.384E-02
DAV:   3    -0.602937249434E+03   -0.21282E-03   -0.10345E-04 11192   0.381E-02    0.163E-02
DAV:   4    -0.602937197196E+03    0.52238E-04   -0.58380E-05  7184   0.128E-02    0.207E-02
DAV:   5    -0.602937262718E+03   -0.65522E-04   -0.62735E-05  6432   0.122E-02    0.772E-03
DAV:   6    -0.602937266107E+03   -0.33888E-05   -0.43918E-06  6232   0.608E-03
  21 F= -.60293727E+03 E0= -.60293727E+03  d E =-.544439E-03
 curvature:  -0.84 expect dE=-0.625E-03 dE for cont linesearch -0.657E-06
 trial: gam= 0.43220 g(F)=  0.689E-03 g(S)=  0.586E-04 ort =-0.562E-04 (trialstep = 0.722E+00)
 search vector abs. value=  0.145E-02
 bond charge predicted
       N       E                     dE             d eps       ncg     rms          rms(c)
DAV:   1    -0.602936791958E+03    0.47076E-03   -0.17068E-01 12752   0.117E+00    0.105E-01
DAV:   2    -0.602937172017E+03   -0.38006E-03   -0.10425E-02 12680   0.242E-01    0.919E-02
DAV:   3    -0.602936820419E+03    0.35160E-03   -0.72441E-04 18272   0.860E-02    0.684E-02
DAV:   4    -0.602937078954E+03   -0.25854E-03   -0.41993E-04 15168   0.685E-02    0.503E-02
DAV:   5    -0.602936738018E+03    0.34094E-03   -0.14092E-04 13248   0.578E-02    0.251E-02
DAV:   6    -0.602936817889E+03   -0.79871E-04   -0.60765E-05 12928   0.259E-02    0.145E-02
DAV:   7    -0.602936753830E+03    0.64059E-04   -0.18648E-05  7960   0.177E-02    0.975E-03
DAV:   8    -0.602936759678E+03   -0.58483E-05   -0.93265E-06  6416   0.919E-03
  22 F= -.60293676E+03 E0= -.60293676E+03  d E =0.506429E-03
 trial-energy change:    0.000506  1 .order   -0.000209   -0.000523    0.000105
 step:   0.6014(harm=  0.6014)  dis= 0.00116  next Energy=  -602.937484 (dE=-0.218E-03)
 bond charge predicted
       N       E                     dE             d eps       ncg     rms          rms(c)
DAV:   1    -0.602936713420E+03    0.40410E-04   -0.47967E-03 12856   0.196E-01    0.178E-02
DAV:   2    -0.602936804295E+03   -0.90875E-04   -0.32076E-04 12840   0.412E-02    0.134E-02
DAV:   3    -0.602936763845E+03    0.40451E-04   -0.23421E-05  9160   0.141E-02    0.795E-03
DAV:   4    -0.602936814448E+03   -0.50604E-04   -0.56753E-06  6448   0.110E-02    0.643E-03
DAV:   5    -0.602936773576E+03    0.40872E-04   -0.36510E-06  6296   0.836E-03    0.290E-03
DAV:   6    -0.602936785567E+03   -0.11991E-04   -0.19510E-06  6112   0.513E-03    0.177E-03
DAV:   7    -0.602936788503E+03   -0.29362E-05   -0.91162E-07  6072   0.265E-03
  23 F= -.60293679E+03 E0= -.60293679E+03  d E =0.477604E-03
 curvature:  -0.60 expect dE=-0.203E-03 dE for cont linesearch -0.159E-05
 trial: gam= 0.56251 g(F)=  0.326E-03 g(S)=  0.106E-04 ort =-0.618E-04 (trialstep = 0.698E+00)
 search vector abs. value=  0.726E-03
 bond charge predicted
       N       E                     dE             d eps       ncg     rms          rms(c)
DAV:   1    -0.602936529137E+03    0.25643E-03   -0.71591E-02 13104   0.888E-01    0.963E-02
DAV:   2    -0.602936500211E+03    0.28926E-04   -0.77902E-03 12976   0.194E-01    0.789E-02
DAV:   3    -0.602937063543E+03   -0.56333E-03   -0.65527E-04 16824   0.105E-01    0.467E-02
DAV:   4    -0.602937050666E+03    0.12877E-04   -0.13145E-04 14864   0.382E-02    0.244E-02
DAV:   5    -0.602936986650E+03    0.64016E-04   -0.49195E-05 11256   0.266E-02    0.181E-02
DAV:   6    -0.602937054056E+03   -0.67406E-04   -0.42572E-05  8416   0.210E-02    0.268E-02
DAV:   7    -0.602937014855E+03    0.39202E-04   -0.45017E-05  6424   0.812E-03    0.101E-02
DAV:   8    -0.602937037722E+03   -0.22868E-04   -0.13869E-05  6232   0.735E-03    0.259E-02
DAV:   9    -0.602937010128E+03    0.27594E-04   -0.35623E-05  6112   0.622E-03    0.434E-03
DAV:  10    -0.602937016265E+03   -0.61365E-05   -0.20076E-06  5960   0.405E-03
  24 F= -.60293702E+03 E0= -.60293702E+03  d E =-.227761E-03
 trial-energy change:   -0.000228  1 .order   -0.000144   -0.000211   -0.000078
 step:   0.7772(harm=  1.1084)  dis= 0.00089  next Energy=  -602.937021 (dE=-0.232E-03)
 bond charge predicted
       N       E                     dE             d eps       ncg     rms          rms(c)
DAV:   1    -0.602937034659E+03   -0.24531E-04   -0.91448E-04 12928   0.100E-01    0.264E-02
DAV:   2    -0.602936465362E+03    0.56930E-03   -0.88486E-04 13288   0.725E-02    0.486E-02
DAV:   3    -0.602936797133E+03   -0.33177E-03   -0.61761E-05 11840   0.500E-02    0.192E-02
DAV:   4    -0.602936921761E+03   -0.12463E-03   -0.15374E-05  8352   0.192E-02    0.126E-02
DAV:   5    -0.602936952711E+03   -0.30950E-04   -0.89185E-06  6824   0.989E-03    0.936E-03
DAV:   6    -0.602936999795E+03   -0.47084E-04   -0.40304E-06  6432   0.766E-03    0.577E-03
DAV:   7    -0.602937032333E+03   -0.32538E-04   -0.30026E-06  6496   0.533E-03    0.304E-03
DAV:   8    -0.602937049200E+03   -0.16866E-04   -0.17776E-05  6208   0.421E-03    0.244E-02
DAV:   9    -0.602937026932E+03    0.22268E-04   -0.24110E-05  6112   0.385E-03    0.304E-03
DAV:  10    -0.602937026297E+03    0.63506E-06   -0.40499E-07  6048   0.175E-03
  25 F= -.60293703E+03 E0= -.60293703E+03  d E =-.237793E-03
 curvature:  -0.46 expect dE=-0.103E-03 dE for cont linesearch -0.456E-05
 ZBRENT: increasing intervall
 opt :   0.9353  next Energy=  -602.937035 (dE=-0.247E-03)
 bond charge predicted
       N       E                     dE             d eps       ncg     rms          rms(c)
DAV:   1    -0.602937039549E+03   -0.12617E-04   -0.36834E-03 13112   0.201E-01    0.315E-02
DAV:   2    -0.602936528945E+03    0.51060E-03   -0.11043E-03 14376   0.786E-02    0.503E-02
DAV:   3    -0.602936853357E+03   -0.32441E-03   -0.82897E-05 12472   0.558E-02    0.199E-02
DAV:   4    -0.602936994506E+03   -0.14115E-03   -0.21372E-05  8912   0.219E-02    0.134E-02
DAV:   5    -0.602937020906E+03   -0.26400E-04   -0.13948E-05  7488   0.131E-02    0.982E-03
DAV:   6    -0.602937071622E+03   -0.50716E-04   -0.30167E-05  6432   0.101E-02    0.232E-02
DAV:   7    -0.602936999548E+03    0.72074E-04   -0.86578E-05  6328   0.108E-02    0.829E-03
DAV:   8    -0.602937031157E+03   -0.31609E-04   -0.16152E-06  6088   0.512E-03    0.513E-03
DAV:   9    -0.602937027605E+03    0.35520E-05   -0.91695E-07  6040   0.321E-03
  26 F= -.60293703E+03 E0= -.60293703E+03  d E =-.239102E-03
 curvature:  -0.92 expect dE=-0.226E-03 dE for cont linesearch -0.228E-05
 trial: gam= 0.28739 g(F)=  0.205E-03 g(S)=  0.409E-04 ort = 0.425E-04 (trialstep = 0.746E+00)
 search vector abs. value=  0.330E-03
 bond charge predicted
       N       E                     dE             d eps       ncg     rms          rms(c)
DAV:   1    -0.602936816117E+03    0.21504E-03   -0.31633E-02 13488   0.664E-01    0.886E-02
DAV:   2    -0.602936870368E+03   -0.54251E-04   -0.53329E-03 12776   0.163E-01    0.756E-02
DAV:   3    -0.602937425002E+03   -0.55463E-03   -0.87451E-04 16448   0.989E-02    0.504E-02
DAV:   4    -0.602937092196E+03    0.33281E-03   -0.29246E-04 15192   0.549E-02    0.286E-02
DAV:   5    -0.602937302598E+03   -0.21040E-03   -0.15017E-04 11624   0.333E-02    0.253E-02
DAV:   6    -0.602937158056E+03    0.14454E-03   -0.10536E-04  7952   0.220E-02    0.149E-02
DAV:   7    -0.602937223044E+03   -0.64988E-04   -0.13203E-05  6456   0.106E-02    0.194E-02
DAV:   8    -0.602937201715E+03    0.21330E-04   -0.49240E-05  6272   0.792E-03    0.122E-02
DAV:   9    -0.602937221454E+03   -0.19739E-04   -0.31619E-06  6152   0.647E-03    0.918E-03
DAV:  10    -0.602937244479E+03   -0.23025E-04   -0.30701E-05  6120   0.500E-03    0.185E-02
DAV:  11    -0.602937237138E+03    0.73407E-05   -0.16473E-06  6016   0.373E-03
  27 F= -.60293724E+03 E0= -.60293724E+03  d E =-.209533E-03
 trial-energy change:   -0.000210  1 .order   -0.000107   -0.000192   -0.000022
 step:   0.7661(harm=  0.8420)  dis= 0.00074  next Energy=  -602.937237 (dE=-0.210E-03)
 reached required accuracy - stopping structural energy minimisation
 writing wavefunctions
