 running on   40 total cores
 distrk:  each k-point on   40 cores,    1 groups
 distr:  one band on   10 cores,    4 groups
 using from now: INCAR     
 vasp.5.4.4.18Apr17-6-g9f103f2a35 (build Oct 23 2017 21:22:35) complex          
  
 POSCAR found :  4 types and      15 ions
 scaLAPACK will be used
 LDA part: xc-table for Pade appr. of Perdew
 POSCAR, INCAR and KPOINTS ok, starting setup
 FFT: planning ...
 WAVECAR not read
 entering main loop
       N       E                     dE             d eps       ncg     rms          rms(c)
DAV:   1     0.147353978967E+04    0.14735E+04   -0.61904E+04  5040   0.176E+03
DAV:   2     0.918638305035E+02   -0.13817E+04   -0.13256E+04  5544   0.546E+02
DAV:   3    -0.131480956487E+03   -0.22334E+03   -0.22017E+03  6560   0.208E+02
DAV:   4    -0.147216907700E+03   -0.15736E+02   -0.15645E+02  8520   0.571E+01
DAV:   5    -0.147974313033E+03   -0.75741E+00   -0.75420E+00  7944   0.940E+00    0.422E+01
DAV:   6    -0.121272896742E+03    0.26701E+02   -0.16425E+02  7096   0.662E+01    0.265E+01
DAV:   7    -0.121576567101E+03   -0.30367E+00   -0.27282E+01  7264   0.260E+01    0.176E+01
DAV:   8    -0.121659917771E+03   -0.83351E-01   -0.89257E+00  7104   0.171E+01    0.762E+00
DAV:   9    -0.121219633126E+03    0.44028E+00   -0.16998E+00  7152   0.813E+00    0.164E+00
DAV:  10    -0.121211983989E+03    0.76491E-02   -0.25071E-01  8640   0.230E+00    0.830E-01
DAV:  11    -0.121214350837E+03   -0.23668E-02   -0.30329E-02  7600   0.993E-01    0.399E-01
DAV:  12    -0.121214821835E+03   -0.47100E-03   -0.47469E-03  6976   0.409E-01    0.132E-01
DAV:  13    -0.121214896614E+03   -0.74779E-04   -0.10931E-03  7424   0.150E-01    0.419E-02
DAV:  14    -0.121214929228E+03   -0.32614E-04   -0.16848E-04  7184   0.642E-02    0.197E-02
DAV:  15    -0.121214938460E+03   -0.92328E-05   -0.19230E-05  3848   0.263E-02
   1 F= -.12121494E+03 E0= -.12121494E+03  d E =-.121215E+03
 curvature:   0.00 expect dE= 0.000E+00 dE for cont linesearch  0.000E+00
 trial: gam= 0.00000 g(F)=  0.209E+00 g(S)=  0.476E+00 ort = 0.000E+00 (trialstep = 0.100E+01)
 search vector abs. value=  0.685E+00
 bond charge predicted
       N       E                     dE             d eps       ncg     rms          rms(c)
DAV:   1    -0.124000747039E+03   -0.27858E+01   -0.13074E+02  6392   0.800E+01    0.151E+01
DAV:   2    -0.122027606587E+03    0.19731E+01   -0.17832E+01  6160   0.240E+01    0.710E+00
DAV:   3    -0.121631454137E+03    0.39615E+00   -0.70150E+00  7800   0.115E+01    0.543E+00
DAV:   4    -0.121222347119E+03    0.40911E+00   -0.15957E+00  7160   0.770E+00    0.226E+00
DAV:   5    -0.121244745099E+03   -0.22398E-01   -0.34838E-01  8120   0.233E+00    0.203E+00
DAV:   6    -0.121262770982E+03   -0.18026E-01   -0.53908E-02  8624   0.770E-01    0.148E+00
DAV:   7    -0.121275630940E+03   -0.12860E-01   -0.62065E-02  6528   0.919E-01    0.284E-01
DAV:   8    -0.121275060978E+03    0.56996E-03   -0.15624E-02  8208   0.482E-01    0.211E-01
DAV:   9    -0.121275505916E+03   -0.44494E-03   -0.20623E-03  6736   0.190E-01    0.797E-02
DAV:  10    -0.121275461863E+03    0.44053E-04   -0.30263E-04  7128   0.794E-02    0.667E-02
DAV:  11    -0.121275522058E+03   -0.60195E-04   -0.14012E-04  6504   0.592E-02    0.186E-02
DAV:  12    -0.121275514827E+03    0.72309E-05   -0.49395E-05  5280   0.275E-02
   2 F= -.12127551E+03 E0= -.12127551E+03  d E =-.605764E-01
 trial-energy change:   -0.060576  1 .order   -0.075404   -0.685096    0.534288
 step:   0.5437(harm=  0.5618)  dis= 0.02177  next Energy=  -121.398811 (dE=-0.184E+00)
 bond charge predicted
       N       E                     dE             d eps       ncg     rms          rms(c)
DAV:   1    -0.121981083393E+03   -0.70556E+00   -0.26909E+01  6168   0.374E+01    0.688E+00
DAV:   2    -0.121546826491E+03    0.43426E+00   -0.36112E+00  6080   0.999E+00    0.299E+00
DAV:   3    -0.121447901657E+03    0.98925E-01   -0.93728E-01  7272   0.487E+00    0.204E+00
DAV:   4    -0.121386132573E+03    0.61769E-01   -0.35451E-01  7224   0.326E+00    0.731E-01
DAV:   5    -0.121390283034E+03   -0.41505E-02   -0.53693E-02  7648   0.984E-01    0.590E-01
DAV:   6    -0.121393391843E+03   -0.31088E-02   -0.65679E-03  9168   0.271E-01    0.503E-01
DAV:   7    -0.121397803760E+03   -0.44119E-02   -0.88382E-03  6944   0.374E-01    0.127E-01
DAV:   8    -0.121397851891E+03   -0.48131E-04   -0.35488E-03  8272   0.196E-01    0.505E-02
DAV:   9    -0.121397942300E+03   -0.90409E-04   -0.44211E-04  7520   0.741E-02    0.174E-02
DAV:  10    -0.121397944545E+03   -0.22448E-05   -0.45783E-05  5432   0.266E-02
   3 F= -.12139794E+03 E0= -.12139794E+03  d E =-.183006E+00
 curvature:  -0.28 expect dE=-0.847E-02 dE for cont linesearch -0.732E-04
 ZBRENT: interpolating
 opt :   0.5333  next Energy=  -121.398014 (dE=-0.183E+00)
 bond charge predicted
       N       E                     dE             d eps       ncg     rms          rms(c)
DAV:   1    -0.121398198973E+03   -0.25667E-03   -0.14003E-02  6320   0.852E-01    0.155E-01
DAV:   2    -0.121398079444E+03    0.11953E-03   -0.17919E-03  6296   0.230E-01    0.698E-02
DAV:   3    -0.121397881457E+03    0.19799E-03   -0.55941E-04  7400   0.112E-01    0.483E-02
DAV:   4    -0.121397941996E+03   -0.60538E-04   -0.18643E-04  6248   0.765E-02    0.183E-02
DAV:   5    -0.121397942122E+03   -0.12627E-06   -0.28764E-05  4872   0.249E-02
   4 F= -.12139794E+03 E0= -.12139794E+03  d E =-.183004E+00
 curvature:  -0.27 expect dE=-0.767E-02 dE for cont linesearch -0.514E-06
 trial: gam= 0.04368 g(F)=  0.217E-01 g(S)=  0.707E-02 ort =-0.115E-02 (trialstep = 0.907E+00)
 search vector abs. value=  0.300E-01
 bond charge predicted
       N       E                     dE             d eps       ncg     rms          rms(c)
DAV:   1    -0.121405495175E+03   -0.75532E-02   -0.33022E+00  6224   0.123E+01    0.112E+00
DAV:   2    -0.121415283901E+03   -0.97887E-02   -0.29574E-01  5184   0.253E+00    0.657E-01
DAV:   3    -0.121412919846E+03    0.23641E-02   -0.28038E-02  7712   0.776E-01    0.256E-01
DAV:   4    -0.121413375056E+03   -0.45521E-03   -0.73151E-03  7720   0.389E-01    0.219E-01
DAV:   5    -0.121412834055E+03    0.54100E-03   -0.18067E-03  7296   0.247E-01    0.127E-01
DAV:   6    -0.121412953237E+03   -0.11918E-03   -0.29408E-04  8704   0.575E-02    0.897E-02
DAV:   7    -0.121413010182E+03   -0.56944E-04   -0.96679E-05  6600   0.455E-02    0.402E-02
DAV:   8    -0.121413021082E+03   -0.10900E-04   -0.48319E-05  5568   0.287E-02    0.143E-02
DAV:   9    -0.121413025527E+03   -0.44454E-05   -0.25202E-05  3328   0.150E-02
   5 F= -.12141303E+03 E0= -.12141303E+03  d E =-.150834E-01
 trial-energy change:   -0.015083  1 .order   -0.014305   -0.026043   -0.002566
 step:   0.9881(harm=  1.0058)  dis= 0.01511  next Energy=  -121.413141 (dE=-0.152E-01)
 bond charge predicted
       N       E                     dE             d eps       ncg     rms          rms(c)
DAV:   1    -0.121413134184E+03   -0.11310E-03   -0.26537E-02  6176   0.111E+00    0.100E-01
DAV:   2    -0.121413216804E+03   -0.82620E-04   -0.24090E-03  5304   0.227E-01    0.609E-02
DAV:   3    -0.121413195277E+03    0.21527E-04   -0.21629E-04  7792   0.695E-02    0.214E-02
DAV:   4    -0.121413190416E+03    0.48618E-05   -0.23135E-05  4424   0.203E-02
   6 F= -.12141319E+03 E0= -.12141319E+03  d E =-.152483E-01
 curvature:  -0.51 expect dE=-0.654E-02 dE for cont linesearch -0.413E-05
 trial: gam= 0.44015 g(F)=  0.120E-01 g(S)=  0.860E-03 ort = 0.494E-03 (trialstep = 0.923E+00)
 search vector abs. value=  0.191E-01
 bond charge predicted
       N       E                     dE             d eps       ncg     rms          rms(c)
DAV:   1    -0.121417131772E+03   -0.39365E-02   -0.22199E+00  5480   0.729E+00    0.496E-01
DAV:   2    -0.121422982715E+03   -0.58509E-02   -0.89581E-02  5632   0.136E+00    0.403E-01
DAV:   3    -0.121423519878E+03   -0.53716E-03   -0.94531E-03  7904   0.407E-01    0.245E-01
DAV:   4    -0.121423127725E+03    0.39215E-03   -0.26236E-03  7064   0.249E-01    0.154E-01
DAV:   5    -0.121423137255E+03   -0.95309E-05   -0.67625E-04  7296   0.154E-01    0.404E-02
DAV:   6    -0.121423136859E+03    0.39612E-06   -0.82744E-05  7368   0.396E-02
   7 F= -.12142314E+03 E0= -.12142314E+03  d E =-.994644E-02
 trial-energy change:   -0.009946  1 .order   -0.010096   -0.012069   -0.008123
 step:   2.8235(harm=  2.8235)  dis= 0.03893  next Energy=  -121.431650 (dE=-0.185E-01)
 bond charge predicted
       N       E                     dE             d eps       ncg     rms          rms(c)
DAV:   1    -0.121404307300E+03    0.18830E-01   -0.94265E+00  5464   0.150E+01    0.103E+00
DAV:   2    -0.121430167492E+03   -0.25860E-01   -0.37935E-01  5632   0.280E+00    0.845E-01
DAV:   3    -0.121431794008E+03   -0.16265E-02   -0.37971E-02  8280   0.797E-01    0.500E-01
DAV:   4    -0.121431077796E+03    0.71621E-03   -0.66576E-03  7296   0.480E-01    0.304E-01
DAV:   5    -0.121430713283E+03    0.36451E-03   -0.30412E-03  7288   0.328E-01    0.865E-02
DAV:   6    -0.121430661826E+03    0.51457E-04   -0.35612E-04  7824   0.868E-02    0.410E-02
DAV:   7    -0.121430663108E+03   -0.12816E-05   -0.56243E-05  5872   0.348E-02
   8 F= -.12143066E+03 E0= -.12143066E+03  d E =-.174727E-01
 curvature:  -2.06 expect dE=-0.475E-02 dE for cont linesearch -0.143E-04
 trial: gam= 0.19775 g(F)=  0.170E-02 g(S)=  0.604E-03 ort =-0.364E-03 (trialstep = 0.130E+01)
 search vector abs. value=  0.291E-02
 bond charge predicted
       N       E                     dE             d eps       ncg     rms          rms(c)
DAV:   1    -0.121429440997E+03    0.12208E-02   -0.95250E-01  5560   0.597E+00    0.439E-01
DAV:   2    -0.121432637572E+03   -0.31966E-02   -0.59838E-02  5640   0.127E+00    0.315E-01
DAV:   3    -0.121431726318E+03    0.91125E-03   -0.56432E-03  7664   0.404E-01    0.193E-01
DAV:   4    -0.121431609526E+03    0.11679E-03   -0.17981E-03  7192   0.246E-01    0.100E-01
DAV:   5    -0.121431466202E+03    0.14332E-03   -0.50086E-04  8344   0.111E-01    0.462E-02
DAV:   6    -0.121431488038E+03   -0.21837E-04   -0.48729E-05  5896   0.286E-02    0.320E-02
DAV:   7    -0.121431486821E+03    0.12168E-05   -0.13502E-05  3512   0.234E-02
   9 F= -.12143149E+03 E0= -.12143149E+03  d E =-.823713E-03
 trial-energy change:   -0.000824  1 .order   -0.000781   -0.002907    0.001345
 step:   0.9075(harm=  0.8908)  dis= 0.00319  next Energy=  -121.431690 (dE=-0.103E-02)
 bond charge predicted
       N       E                     dE             d eps       ncg     rms          rms(c)
DAV:   1    -0.121431666493E+03   -0.17846E-03   -0.88036E-02  5600   0.182E+00    0.134E-01
DAV:   2    -0.121431732213E+03   -0.65720E-04   -0.55121E-03  5704   0.386E-01    0.969E-02
DAV:   3    -0.121431801624E+03   -0.69410E-04   -0.53963E-04  7776   0.124E-01    0.602E-02
DAV:   4    -0.121431681762E+03    0.11986E-03   -0.16930E-04  6832   0.754E-02    0.304E-02
DAV:   5    -0.121431696155E+03   -0.14394E-04   -0.40113E-05  5144   0.341E-02    0.129E-02
DAV:   6    -0.121431692697E+03    0.34583E-05   -0.69168E-06  3224   0.141E-02
  10 F= -.12143169E+03 E0= -.12143169E+03  d E =-.102959E-02
 curvature:  -0.58 expect dE=-0.240E-03 dE for cont linesearch -0.290E-05
 ZBRENT: interpolating
 opt :   0.8609  next Energy=  -121.431696 (dE=-0.103E-02)
 bond charge predicted
       N       E                     dE             d eps       ncg     rms          rms(c)
DAV:   1    -0.121431704544E+03   -0.83885E-05   -0.12134E-03  5632   0.214E-01    0.158E-02
DAV:   2    -0.121431688412E+03    0.16132E-04   -0.74775E-05  5456   0.451E-02    0.116E-02
DAV:   3    -0.121431700651E+03   -0.12240E-04   -0.57595E-06  3232   0.148E-02    0.682E-03
DAV:   4    -0.121431690305E+03    0.10346E-04   -0.34985E-06  3000   0.129E-02    0.408E-03
DAV:   5    -0.121431692859E+03   -0.25538E-05   -0.16538E-06  2880   0.807E-03
  11 F= -.12143169E+03 E0= -.12143169E+03  d E =-.102975E-02
 curvature:  -0.56 expect dE=-0.210E-03 dE for cont linesearch -0.456E-07
 trial: gam= 0.11006 g(F)=  0.128E-03 g(S)=  0.246E-03 ort = 0.154E-04 (trialstep = 0.121E+01)
 search vector abs. value=  0.413E-03
 bond charge predicted
       N       E                     dE             d eps       ncg     rms          rms(c)
DAV:   1    -0.121433194159E+03   -0.15039E-02   -0.13135E-01  5384   0.197E+00    0.334E-01
DAV:   2    -0.121432119400E+03    0.10748E-02   -0.78333E-03  5728   0.494E-01    0.163E-01
DAV:   3    -0.121432017103E+03    0.10230E-03   -0.19405E-03  6816   0.208E-01    0.853E-02
DAV:   4    -0.121431773933E+03    0.24317E-03   -0.67343E-04  7576   0.144E-01    0.507E-02
DAV:   5    -0.121431813238E+03   -0.39305E-04   -0.12405E-04  6344   0.603E-02    0.318E-02
DAV:   6    -0.121431815104E+03   -0.18661E-05   -0.24645E-05  4712   0.205E-02
  12 F= -.12143182E+03 E0= -.12143182E+03  d E =-.122245E-03
 trial-energy change:   -0.000122  1 .order   -0.000198   -0.000456    0.000060
 step:   0.8477(harm=  1.0745)  dis= 0.00109  next Energy=  -121.431826 (dE=-0.133E-03)
 bond charge predicted
       N       E                     dE             d eps       ncg     rms          rms(c)
DAV:   1    -0.121432005195E+03   -0.19196E-03   -0.12298E-02  5504   0.600E-01    0.104E-01
DAV:   2    -0.121431928781E+03    0.76414E-04   -0.77003E-04  5984   0.152E-01    0.513E-02
DAV:   3    -0.121431822032E+03    0.10675E-03   -0.19575E-04  6832   0.651E-02    0.265E-02
DAV:   4    -0.121431867561E+03   -0.45529E-04   -0.60754E-05  5560   0.449E-02    0.147E-02
DAV:   5    -0.121431852114E+03    0.15447E-04   -0.11050E-05  3520   0.224E-02    0.768E-03
DAV:   6    -0.121431852469E+03   -0.35470E-06   -0.45153E-06  2856   0.110E-02
  13 F= -.12143185E+03 E0= -.12143185E+03  d E =-.159610E-03
 curvature:   0.95 expect dE= 0.104E-03 dE for cont linesearch  0.485E-06
 trial: gam= 0.34609 g(F)=  0.469E-04 g(S)=  0.618E-04 ort =-0.145E-04 (trialstep = 0.114E+01)
 search vector abs. value=  0.148E-03
 bond charge predicted
       N       E                     dE             d eps       ncg     rms          rms(c)
DAV:   1    -0.121431927648E+03   -0.75534E-04   -0.47550E-02  5336   0.977E-01    0.110E-01
DAV:   2    -0.121431981142E+03   -0.53494E-04   -0.14627E-03  6232   0.209E-01    0.630E-02
DAV:   3    -0.121431859871E+03    0.12127E-03   -0.21908E-04  7296   0.760E-02    0.383E-02
DAV:   4    -0.121431911458E+03   -0.51587E-04   -0.90487E-05  5968   0.570E-02    0.186E-02
DAV:   5    -0.121431894844E+03    0.16614E-04   -0.19891E-05  4144   0.263E-02    0.973E-03
DAV:   6    -0.121431898979E+03   -0.41354E-05   -0.62699E-06  2976   0.133E-02
  14 F= -.12143190E+03 E0= -.12143190E+03  d E =-.465106E-04
 trial-energy change:   -0.000047  1 .order   -0.000059   -0.000118   -0.000001
 step:   1.1475(harm=  1.1475)  dis= 0.00128  next Energy=  -121.431912 (dE=-0.595E-04)
 reached required accuracy - stopping structural energy minimisation
 writing wavefunctions
