       N       E                     dE             d eps       ncg     rms          rms(c)
DAV:   1     0.132588672488E+04    0.13259E+04   -0.64488E+04  3648   0.165E+03
DAV:   2     0.243439242115E+02   -0.13015E+04   -0.12472E+04  4324   0.527E+02
DAV:   3    -0.131950683437E+03   -0.15629E+03   -0.15400E+03  4876   0.177E+02
DAV:   4    -0.144227970498E+03   -0.12277E+02   -0.12192E+02  6528   0.486E+01
DAV:   5    -0.144710171196E+03   -0.48220E+00   -0.47921E+00  5848   0.730E+00    0.396E+01
DAV:   6    -0.121858827022E+03    0.22851E+02   -0.12718E+02  5160   0.537E+01    0.252E+01
DAV:   7    -0.122853577579E+03   -0.99475E+00   -0.36806E+01  5472   0.267E+01    0.178E+01
DAV:   8    -0.121774638073E+03    0.10789E+01   -0.34012E+00  6048   0.123E+01    0.102E+01
DAV:   9    -0.121875571781E+03   -0.10093E+00   -0.11650E+00  5052   0.431E+00    0.207E+00
DAV:  10    -0.121826548723E+03    0.49023E-01   -0.62267E-01  5468   0.358E+00    0.878E-01
DAV:  11    -0.121823248968E+03    0.32998E-02   -0.79157E-02  5232   0.135E+00    0.527E-01
DAV:  12    -0.121824877428E+03   -0.16285E-02   -0.21984E-02  5260   0.787E-01    0.346E-01
DAV:  13    -0.121823248120E+03    0.16293E-02   -0.53148E-03  5328   0.431E-01    0.900E-02
DAV:  14    -0.121823441576E+03   -0.19346E-03   -0.10809E-03  5712   0.177E-01    0.113E-01
DAV:  15    -0.121823314927E+03    0.12665E-03   -0.40579E-04  5056   0.111E-01    0.392E-02
DAV:  16    -0.121823327464E+03   -0.12537E-04   -0.93993E-05  5548   0.446E-02    0.148E-02
DAV:  17    -0.121823327999E+03   -0.53484E-06   -0.12571E-05  3000   0.170E-02
   1 F= -.12182333E+03 E0= -.12182333E+03  d E =-.121823E+03
       N       E                     dE             d eps       ncg     rms          rms(c)
DAV:   1    -0.134503153079E+03   -0.12680E+02   -0.45995E+02  4492   0.119E+02    0.322E+01
DAV:   2    -0.127161182419E+03    0.73420E+01   -0.93194E+01  5284   0.481E+01    0.144E+01
DAV:   3    -0.122046909303E+03    0.51143E+01   -0.10121E+01  5472   0.217E+01    0.958E+00
DAV:   4    -0.121737865726E+03    0.30904E+00   -0.87840E+00  5092   0.114E+01    0.753E+00
DAV:   5    -0.121613784388E+03    0.12408E+00   -0.13222E+00  5160   0.641E+00    0.515E+00
DAV:   6    -0.121670131276E+03   -0.56347E-01   -0.58307E-01  6588   0.285E+00    0.288E+00
DAV:   7    -0.121704821066E+03   -0.34690E-01   -0.35580E-01  6016   0.244E+00    0.107E+00
DAV:   8    -0.121692539066E+03    0.12282E-01   -0.12738E-01  5552   0.173E+00    0.664E-01
DAV:   9    -0.121690541719E+03    0.19973E-02   -0.13407E-02  5648   0.517E-01    0.302E-01
DAV:  10    -0.121691317025E+03   -0.77531E-03   -0.26799E-03  5336   0.245E-01    0.176E-01
DAV:  11    -0.121691224928E+03    0.92097E-04   -0.28146E-03  5592   0.258E-01    0.896E-02
DAV:  12    -0.121691072477E+03    0.15245E-03   -0.35929E-04  5368   0.993E-02    0.256E-02
DAV:  13    -0.121691079211E+03   -0.67334E-05   -0.16776E-05  3472   0.221E-02
   2 F= -.12169108E+03 E0= -.12169108E+03  d E =0.132249E+00
       N       E                     dE             d eps       ncg     rms          rms(c)
DAV:   1    -0.126359048774E+03   -0.46680E+01   -0.13708E+02  4604   0.635E+01    0.172E+01
DAV:   2    -0.123125766911E+03    0.32333E+01   -0.15458E+01  4392   0.199E+01    0.632E+00
DAV:   3    -0.122879920511E+03    0.24585E+00   -0.78713E+00  5412   0.125E+01    0.525E+00
DAV:   4    -0.122243515771E+03    0.63640E+00   -0.11012E+00  5436   0.842E+00    0.168E+00
DAV:   5    -0.122264169272E+03   -0.20654E-01   -0.34331E-01  5912   0.205E+00    0.128E+00
DAV:   6    -0.122283586699E+03   -0.19417E-01   -0.61044E-02  5912   0.107E+00    0.925E-01
DAV:   7    -0.122300671032E+03   -0.17084E-01   -0.37460E-02  6328   0.555E-01    0.309E-01
DAV:   8    -0.122302970642E+03   -0.22996E-02   -0.72006E-03  6016   0.297E-01    0.130E-01
DAV:   9    -0.122303293373E+03   -0.32273E-03   -0.20200E-03  5896   0.170E-01    0.518E-02
DAV:  10    -0.122303333239E+03   -0.39867E-04   -0.31518E-04  5384   0.822E-02    0.293E-02
DAV:  11    -0.122303310887E+03    0.22352E-04   -0.84396E-05  4520   0.486E-02    0.166E-02
DAV:  12    -0.122303332285E+03   -0.21398E-04   -0.34777E-05  3388   0.338E-02    0.108E-02
DAV:  13    -0.122303324793E+03    0.74928E-05   -0.63062E-06  2592   0.152E-02
   3 F= -.12230332E+03 E0= -.12230332E+03  d E =-.479997E+00
       N       E                     dE             d eps       ncg     rms          rms(c)
DAV:   1    -0.122304105771E+03   -0.77349E-03   -0.22946E-02  4620   0.835E-01    0.210E-01
DAV:   2    -0.122303667095E+03    0.43868E-03   -0.26930E-03  4636   0.265E-01    0.885E-02
DAV:   3    -0.122303497701E+03    0.16939E-03   -0.10196E-03  5256   0.166E-01    0.921E-02
DAV:   4    -0.122303427894E+03    0.69807E-04   -0.46797E-04  5088   0.112E-01    0.258E-02
DAV:   5    -0.122303437419E+03   -0.95245E-05   -0.48839E-05  4584   0.279E-02
   4 F= -.12230344E+03 E0= -.12230344E+03  d E =-.480109E+00
       N       E                     dE             d eps       ncg     rms          rms(c)
DAV:   1    -0.122303521478E+03   -0.93584E-04   -0.27770E-03  4652   0.290E-01    0.725E-02
DAV:   2    -0.122303476366E+03    0.45112E-04   -0.30790E-04  4616   0.912E-02    0.320E-02
DAV:   3    -0.122303429266E+03    0.47101E-04   -0.12090E-04  4496   0.578E-02    0.321E-02
DAV:   4    -0.122303439099E+03   -0.98335E-05   -0.61029E-05  4016   0.415E-02
   5 F= -.12230344E+03 E0= -.12230344E+03  d E =-.480111E+00
       N       E                     dE             d eps       ncg     rms          rms(c)
DAV:   1    -0.122295625825E+03    0.78034E-02   -0.20516E+00  3840   0.672E+00    0.490E-01
DAV:   2    -0.122309204856E+03   -0.13579E-01   -0.18845E-01  4440   0.189E+00    0.359E-01
DAV:   3    -0.122309004821E+03    0.20004E-03   -0.83128E-03  5476   0.486E-01    0.232E-01
DAV:   4    -0.122308621702E+03    0.38312E-03   -0.29076E-03  5520   0.285E-01    0.172E-01
DAV:   5    -0.122308436380E+03    0.18532E-03   -0.17203E-03  5224   0.186E-01    0.692E-02
DAV:   6    -0.122308431150E+03    0.52294E-05   -0.38204E-04  5616   0.930E-02    0.457E-02
DAV:   7    -0.122308453890E+03   -0.22740E-04   -0.48024E-05  4080   0.316E-02    0.235E-02
DAV:   8    -0.122308460406E+03   -0.65159E-05   -0.11661E-05  2560   0.187E-02
   6 F= -.12230846E+03 E0= -.12230846E+03  d E =-.502131E-02
       N       E                     dE             d eps       ncg     rms          rms(c)
DAV:   1    -0.122308275798E+03    0.17809E-03   -0.11599E-01  3860   0.160E+00    0.117E-01
DAV:   2    -0.122309101222E+03   -0.82542E-03   -0.10746E-02  4392   0.450E-01    0.889E-02
DAV:   3    -0.122309041416E+03    0.59807E-04   -0.49187E-04  5664   0.123E-01    0.573E-02
DAV:   4    -0.122309058330E+03   -0.16914E-04   -0.15299E-04  5080   0.672E-02    0.414E-02
DAV:   5    -0.122309026118E+03    0.32212E-04   -0.89926E-05  4772   0.459E-02    0.163E-02
DAV:   6    -0.122309025771E+03    0.34735E-06   -0.16474E-05  3056   0.233E-02
   7 F= -.12230903E+03 E0= -.12230903E+03  d E =-.558667E-02
       N       E                     dE             d eps       ncg     rms          rms(c)
DAV:   1    -0.122309008744E+03    0.17374E-04   -0.14513E-03  3980   0.179E-01    0.128E-02
DAV:   2    -0.122309020791E+03   -0.12047E-04   -0.13174E-04  4280   0.494E-02    0.109E-02
DAV:   3    -0.122309018212E+03    0.25786E-05   -0.40069E-06  2824   0.123E-02
   8 F= -.12230902E+03 E0= -.12230902E+03  d E =-.557911E-02
       N       E                     dE             d eps       ncg     rms          rms(c)
DAV:   1    -0.122309676835E+03   -0.65604E-03   -0.26308E-01  3688   0.204E+00    0.141E-01
DAV:   2    -0.122310126704E+03   -0.44987E-03   -0.75453E-03  4888   0.456E-01    0.170E-01
DAV:   3    -0.122310043224E+03    0.83480E-04   -0.10147E-03  5412   0.169E-01    0.957E-02
DAV:   4    -0.122309988827E+03    0.54397E-04   -0.11822E-04  4472   0.585E-02    0.661E-02
DAV:   5    -0.122309980495E+03    0.83321E-05   -0.90954E-05  5200   0.474E-02
   9 F= -.12230998E+03 E0= -.12230998E+03  d E =-.962282E-03
       N       E                     dE             d eps       ncg     rms          rms(c)
DAV:   1    -0.122310037504E+03   -0.48677E-04   -0.13214E-01  3712   0.144E+00    0.102E-01
DAV:   2    -0.122310234074E+03   -0.19657E-03   -0.37114E-03  4896   0.317E-01    0.118E-01
DAV:   3    -0.122310222763E+03    0.11310E-04   -0.48402E-04  5564   0.114E-01    0.693E-02
DAV:   4    -0.122310188875E+03    0.33889E-04   -0.56799E-05  3800   0.412E-02    0.478E-02
DAV:   5    -0.122310186459E+03    0.24160E-05   -0.42425E-05  3896   0.346E-02
  10 F= -.12231019E+03 E0= -.12231019E+03  d E =-.116825E-02
       N       E                     dE             d eps       ncg     rms          rms(c)
DAV:   1    -0.122311250172E+03   -0.10613E-02   -0.28214E-01  3864   0.231E+00    0.267E-01
DAV:   2    -0.122311215143E+03    0.35029E-04   -0.10577E-02  4560   0.558E-01    0.161E-01
DAV:   3    -0.122311017417E+03    0.19773E-03   -0.16701E-03  5836   0.207E-01    0.122E-01
DAV:   4    -0.122310937811E+03    0.79606E-04   -0.68187E-04  5128   0.140E-01    0.556E-02
DAV:   5    -0.122310908008E+03    0.29802E-04   -0.15798E-04  6164   0.550E-02    0.277E-02
DAV:   6    -0.122310914222E+03   -0.62135E-05   -0.10207E-05  2832   0.153E-02
  11 F= -.12231091E+03 E0= -.12231091E+03  d E =-.727763E-03
       N       E                     dE             d eps       ncg     rms          rms(c)
DAV:   1    -0.122311231634E+03   -0.32363E-03   -0.17074E-01  3856   0.180E+00    0.207E-01
DAV:   2    -0.122311208903E+03    0.22731E-04   -0.63687E-03  4480   0.434E-01    0.125E-01
DAV:   3    -0.122311076532E+03    0.13237E-03   -0.97855E-04  5836   0.158E-01    0.928E-02
DAV:   4    -0.122311051515E+03    0.25017E-04   -0.40642E-04  5000   0.108E-01    0.442E-02
DAV:   5    -0.122311030393E+03    0.21122E-04   -0.98834E-05  5836   0.438E-02    0.224E-02
DAV:   6    -0.122311035332E+03   -0.49390E-05   -0.72251E-06  2624   0.134E-02
  12 F= -.12231104E+03 E0= -.12231104E+03  d E =-.848873E-03
       N       E                     dE             d eps       ncg     rms          rms(c)
DAV:   1    -0.122312634812E+03   -0.16044E-02   -0.29389E-01  3880   0.239E+00    0.379E-01
DAV:   2    -0.122311714099E+03    0.92071E-03   -0.13770E-02  4304   0.635E-01    0.193E-01
DAV:   3    -0.122311808512E+03   -0.94413E-04   -0.33075E-03  6008   0.285E-01    0.165E-01
DAV:   4    -0.122311360389E+03    0.44812E-03   -0.13903E-03  5256   0.193E-01    0.552E-02
DAV:   5    -0.122311371271E+03   -0.10882E-04   -0.20629E-04  6072   0.583E-02    0.398E-02
DAV:   6    -0.122311372140E+03   -0.86854E-06   -0.14455E-05  3264   0.151E-02
  13 F= -.12231137E+03 E0= -.12231137E+03  d E =-.336807E-03
       N       E                     dE             d eps       ncg     rms          rms(c)
DAV:   1    -0.122311372129E+03   -0.85790E-06   -0.17689E-03  3864   0.188E-01    0.300E-02
DAV:   2    -0.122311360294E+03    0.11834E-04   -0.81152E-05  4096   0.500E-02    0.159E-02
DAV:   3    -0.122311373526E+03   -0.13231E-04   -0.17612E-05  2856   0.234E-02    0.136E-02
DAV:   4    -0.122311363182E+03    0.10344E-04   -0.11057E-05  2864   0.206E-02    0.541E-03
DAV:   5    -0.122311364130E+03   -0.94842E-06   -0.39584E-06  2216   0.107E-02
  14 F= -.12231136E+03 E0= -.12231136E+03  d E =-.328798E-03
       N       E                     dE             d eps       ncg     rms          rms(c)
DAV:   1    -0.122311375751E+03   -0.12569E-04   -0.75295E-04  4112   0.120E-01    0.212E-02
DAV:   2    -0.122311375444E+03    0.30645E-06   -0.34401E-05  3344   0.337E-02
  15 F= -.12231138E+03 E0= -.12231138E+03  d E =-.340112E-03
       N       E                     dE             d eps       ncg     rms          rms(c)
DAV:   1    -0.122311368626E+03    0.71243E-05   -0.13143E-04  4184   0.529E-02    0.152E-02
DAV:   2    -0.122311386704E+03   -0.18078E-04   -0.28560E-05  3304   0.316E-02    0.145E-02
DAV:   3    -0.122311369928E+03    0.16776E-04   -0.12048E-05  2824   0.211E-02    0.537E-03
DAV:   4    -0.122311371024E+03   -0.10964E-05   -0.23662E-06  2120   0.787E-03
  16 F= -.12231137E+03 E0= -.12231137E+03  d E =-.335692E-03
       N       E                     dE             d eps       ncg     rms          rms(c)
DAV:   1    -0.122311372048E+03   -0.21201E-05   -0.53805E-06  2084   0.126E-02    0.218E-03
DAV:   2    -0.122311372594E+03   -0.54599E-06   -0.89733E-07  2068   0.670E-03
  17 F= -.12231137E+03 E0= -.12231137E+03  d E =-.337262E-03
       N       E                     dE             d eps       ncg     rms          rms(c)
DAV:   1    -0.122311372102E+03   -0.53493E-07   -0.12445E-06  2052   0.600E-03    0.154E-03
DAV:   2    -0.122311373344E+03   -0.12428E-05   -0.40327E-07  2056   0.478E-03
  18 F= -.12231137E+03 E0= -.12231137E+03  d E =-.338012E-03
       N       E                     dE             d eps       ncg     rms          rms(c)
DAV:   1    -0.122311372544E+03   -0.44216E-06   -0.55142E-07  2048   0.402E-03    0.949E-04
DAV:   2    -0.122311373155E+03   -0.61115E-06   -0.14974E-07  2040   0.277E-03
  19 F= -.12231137E+03 E0= -.12231137E+03  d E =-.337823E-03
       N       E                     dE             d eps       ncg     rms          rms(c)
DAV:   1    -0.122311372778E+03   -0.23392E-06   -0.14970E-07  2036   0.222E-03    0.559E-04
DAV:   2    -0.122311373095E+03   -0.31763E-06   -0.54827E-08  2028   0.167E-03
  20 F= -.12231137E+03 E0= -.12231137E+03  d E =-.337763E-03
       N       E                     dE             d eps       ncg     rms          rms(c)
DAV:   1    -0.122311372937E+03   -0.15976E-06   -0.48952E-08  2024   0.125E-03    0.354E-04
DAV:   2    -0.122311373046E+03   -0.10823E-06   -0.19227E-08  2028   0.946E-04
  21 F= -.12231137E+03 E0= -.12231137E+03  d E =-.337714E-03
       N       E                     dE             d eps       ncg     rms          rms(c)
DAV:   1    -0.122311373021E+03   -0.83783E-07   -0.15710E-08  2020   0.700E-04    0.234E-04
DAV:   2    -0.122311373051E+03   -0.29433E-07   -0.77105E-09  2028   0.577E-04
  22 F= -.12231137E+03 E0= -.12231137E+03  d E =-.337719E-03
       N       E                     dE             d eps       ncg     rms          rms(c)
DAV:   1    -0.122311373060E+03   -0.38592E-07   -0.60508E-09  2020   0.420E-04    0.166E-04
DAV:   2    -0.122311373077E+03   -0.17257E-07   -0.34763E-09  1996   0.374E-04
  23 F= -.12231137E+03 E0= -.12231137E+03  d E =-.337745E-03
       N       E                     dE             d eps       ncg     rms          rms(c)
DAV:   1    -0.122311373084E+03   -0.24014E-07   -0.26591E-09  1992   0.266E-04    0.122E-04
DAV:   2    -0.122311373098E+03   -0.14172E-07   -0.17481E-09  1992   0.249E-04
  24 F= -.12231137E+03 E0= -.12231137E+03  d E =-.337766E-03
       N       E                     dE             d eps       ncg     rms          rms(c)
DAV:   1    -0.122311373100E+03   -0.16576E-07   -0.13143E-09  1988   0.178E-04    0.956E-05
DAV:   2    -0.122311373107E+03   -0.63392E-08   -0.92480E-10  1992   0.170E-04
  25 F= -.12231137E+03 E0= -.12231137E+03  d E =-.337775E-03
       N       E                     dE             d eps       ncg     rms          rms(c)
DAV:   1    -0.122311373108E+03   -0.72923E-08   -0.68935E-10  1984   0.124E-04    0.733E-05
DAV:   2    -0.122311373118E+03   -0.10014E-07   -0.50964E-10  1992   0.119E-04
  26 F= -.12231137E+03 E0= -.12231137E+03  d E =-.337786E-03
       N       E                     dE             d eps       ncg     rms          rms(c)
DAV:   1    -0.122311373118E+03   -0.10325E-07   -0.38063E-10  1992   0.884E-05    0.605E-05
DAV:   2    -0.122311373115E+03    0.31723E-08   -0.29067E-10  1992   0.858E-05
  27 F= -.12231137E+03 E0= -.12231137E+03  d E =-.337783E-03
       N       E                     dE             d eps       ncg     rms          rms(c)
DAV:   1    -0.122311373122E+03   -0.40964E-08   -0.22017E-10  1992   0.664E-05    0.331E-05
DAV:   2    -0.122311373121E+03    0.11532E-08   -0.17024E-10  1992   0.610E-05
  28 F= -.12231137E+03 E0= -.12231137E+03  d E =-.337789E-03
       N       E                     dE             d eps       ncg     rms          rms(c)
DAV:   1    -0.122311373122E+03    0.10550E-09   -0.12786E-10  1992   0.471E-05    0.232E-05
DAV:   2    -0.122311373128E+03   -0.61373E-08   -0.10228E-10  1984   0.441E-05
  29 F= -.12231137E+03 E0= -.12231137E+03  d E =-.337796E-03
       N       E                     dE             d eps       ncg     rms          rms(c)
DAV:   1    -0.122311373129E+03   -0.73578E-08   -0.78509E-11  1980   0.346E-05    0.209E-05
DAV:   2    -0.122311373119E+03    0.10716E-07   -0.69075E-11  1980   0.383E-05
  30 F= -.12231137E+03 E0= -.12231137E+03  d E =-.337787E-03
       N       E                     dE             d eps       ncg     rms          rms(c)
DAV:   1    -0.122312311616E+03   -0.93849E-03   -0.29436E-01  3872   0.239E+00    0.380E-01
DAV:   2    -0.122311471818E+03    0.83980E-03   -0.13492E-02  4240   0.632E-01    0.190E-01
DAV:   3    -0.122311219985E+03    0.25183E-03   -0.33070E-03  6024   0.283E-01    0.160E-01
DAV:   4    -0.122311009698E+03    0.21029E-03   -0.12828E-03  5296   0.190E-01    0.533E-02
DAV:   5    -0.122311011417E+03   -0.17190E-05   -0.19624E-04  6036   0.564E-02    0.395E-02
DAV:   6    -0.122311023605E+03   -0.12188E-04   -0.13687E-05  3184   0.146E-02    0.310E-02
DAV:   7    -0.122311039594E+03   -0.15989E-04   -0.22844E-05  3236   0.199E-02    0.809E-03
DAV:   8    -0.122311041652E+03   -0.20577E-05   -0.54293E-06  2320   0.137E-02
  31 F= -.12231104E+03 E0= -.12231104E+03  d E =-.631961E-05
