<?xml version="1.0" encoding="ISO-8859-1"?>
<modeling>
 <generator>
  <i name="program" type="string">vasp </i>
  <i name="version" type="string">5.4.4.18Apr17-6-g9f103f2a35  </i>
  <i name="subversion" type="string">(build Oct 23 2017 21:22:35) complex            parallel </i>
  <i name="platform" type="string">LinuxIFC </i>
  <i name="date" type="string">2017 12 27 </i>
  <i name="time" type="string">08:10:08 </i>
 </generator>
 <incar>
  <i type="string" name="PREC">accurate</i>
  <i type="int" name="IBRION">    -1</i>
  <i name="EDIFF">      0.00001000</i>
  <i name="EDIFFG">     -0.01000000</i>
  <i type="int" name="ISIF">     2</i>
  <i name="ENCUT">    500.00000000</i>
  <i type="int" name="ISMEAR">    -5</i>
  <v type="int" name="KPOINT_BSE">    -1     0     0     0</v>
 </incar>
 <structure name="primitive_cell" >
  <crystal>
   <varray name="basis" >
    <v>       0.00000000       3.98162565      -7.96116599 </v>
    <v>       0.00000000      -7.96116599       3.98162565 </v>
    <v>      -3.98888579       0.00000000       0.00000000 </v>
   </varray>
   <i name="volume">    189.57906175 </i>
   <varray name="rec_basis" >
    <v>       0.00000000      -0.08377639      -0.16750891 </v>
    <v>       0.00000000      -0.16750891      -0.08377639 </v>
    <v>      -0.25069657       0.00000000       0.00000000 </v>
   </varray>
  </crystal>
  <varray name="positions" >
   <v>       0.16666667      -0.16666667      -0.50000000 </v>
   <v>       0.16666667      -0.16666667       0.00000000 </v>
   <v>      -0.16839460      -0.33505351      -0.50000000 </v>
   <v>       0.33505351       0.16839460      -0.50000000 </v>
   <v>      -0.00172018       0.49827207      -0.50000000 </v>
   <v>      -0.49827207       0.00172018      -0.50000000 </v>
   <v>      -0.33333333       0.33333333       0.00000000 </v>
   <v>      -0.00590092       0.00590092       0.00000000 </v>
   <v>       0.33923426      -0.33923426       0.00000000 </v>
   <v>       0.49856649      -0.49856649      -0.50000000 </v>
   <v>      -0.16523315       0.16523315      -0.50000000 </v>
   <v>      -0.33333333      -0.16666667      -0.50000000 </v>
   <v>       0.16666667       0.33333333      -0.50000000 </v>
   <v>       0.49945221      -0.49945221       0.00000000 </v>
   <v>      -0.16611888       0.16611888       0.00000000 </v>
  </varray>
 </structure>
 <varray name="primitive_index" >
  <v type="int" >        1 </v>
  <v type="int" >        2 </v>
  <v type="int" >        4 </v>
  <v type="int" >        9 </v>
  <v type="int" >        3 </v>
  <v type="int" >        7 </v>
  <v type="int" >       11 </v>
  <v type="int" >       13 </v>
  <v type="int" >       12 </v>
  <v type="int" >       15 </v>
  <v type="int" >       14 </v>
  <v type="int" >        6 </v>
  <v type="int" >       10 </v>
  <v type="int" >        8 </v>
  <v type="int" >        5 </v>
 </varray>
 <kpoints>
  <generation param="Gamma">
   <v type="int" name="divisions">       4        4        9 </v>
   <v name="usershift">      0.00000000       0.00000000       0.00000000 </v>
   <v name="genvec1">      0.25000000       0.00000000       0.00000000 </v>
   <v name="genvec2">      0.00000000       0.25000000       0.00000000 </v>
   <v name="genvec3">      0.00000000       0.00000000       0.11111111 </v>
   <v name="shift">      0.00000000       0.00000000       0.00000000 </v>
  </generation>
  <varray name="kpointlist" >
   <v>       0.00000000       0.00000000       0.00000000 </v>
   <v>       0.25000000       0.00000000       0.00000000 </v>
   <v>       0.50000000       0.00000000       0.00000000 </v>
   <v>       0.25000000       0.25000000       0.00000000 </v>
   <v>       0.50000000       0.25000000       0.00000000 </v>
   <v>      -0.25000000       0.25000000       0.00000000 </v>
   <v>       0.50000000       0.50000000       0.00000000 </v>
   <v>       0.00000000       0.00000000       0.11111111 </v>
   <v>       0.25000000       0.00000000       0.11111111 </v>
   <v>       0.50000000       0.00000000       0.11111111 </v>
   <v>       0.25000000       0.25000000       0.11111111 </v>
   <v>       0.50000000       0.25000000       0.11111111 </v>
   <v>      -0.25000000       0.25000000       0.11111111 </v>
   <v>       0.50000000       0.50000000       0.11111111 </v>
   <v>       0.00000000       0.00000000       0.22222222 </v>
   <v>       0.25000000       0.00000000       0.22222222 </v>
   <v>       0.50000000       0.00000000       0.22222222 </v>
   <v>       0.25000000       0.25000000       0.22222222 </v>
   <v>       0.50000000       0.25000000       0.22222222 </v>
   <v>      -0.25000000       0.25000000       0.22222222 </v>
   <v>       0.50000000       0.50000000       0.22222222 </v>
   <v>       0.00000000       0.00000000       0.33333333 </v>
   <v>       0.25000000       0.00000000       0.33333333 </v>
   <v>       0.50000000       0.00000000       0.33333333 </v>
   <v>       0.25000000       0.25000000       0.33333333 </v>
   <v>       0.50000000       0.25000000       0.33333333 </v>
   <v>      -0.25000000       0.25000000       0.33333333 </v>
   <v>       0.50000000       0.50000000       0.33333333 </v>
   <v>       0.00000000       0.00000000       0.44444444 </v>
   <v>       0.25000000       0.00000000       0.44444444 </v>
   <v>       0.50000000       0.00000000       0.44444444 </v>
   <v>       0.25000000       0.25000000       0.44444444 </v>
   <v>       0.50000000       0.25000000       0.44444444 </v>
   <v>      -0.25000000       0.25000000       0.44444444 </v>
   <v>       0.50000000       0.50000000       0.44444444 </v>
  </varray>
  <varray name="weights" >
   <v>       0.00694444 </v>
   <v>       0.02777778 </v>
   <v>       0.01388889 </v>
   <v>       0.01388889 </v>
   <v>       0.02777778 </v>
   <v>       0.01388889 </v>
   <v>       0.00694444 </v>
   <v>       0.01388889 </v>
   <v>       0.05555556 </v>
   <v>       0.02777778 </v>
   <v>       0.02777778 </v>
   <v>       0.05555556 </v>
   <v>       0.02777778 </v>
   <v>       0.01388889 </v>
   <v>       0.01388889 </v>
   <v>       0.05555556 </v>
   <v>       0.02777778 </v>
   <v>       0.02777778 </v>
   <v>       0.05555556 </v>
   <v>       0.02777778 </v>
   <v>       0.01388889 </v>
   <v>       0.01388889 </v>
   <v>       0.05555556 </v>
   <v>       0.02777778 </v>
   <v>       0.02777778 </v>
   <v>       0.05555556 </v>
   <v>       0.02777778 </v>
   <v>       0.01388889 </v>
   <v>       0.01388889 </v>
   <v>       0.05555556 </v>
   <v>       0.02777778 </v>
   <v>       0.02777778 </v>
   <v>       0.05555556 </v>
   <v>       0.02777778 </v>
   <v>       0.01388889 </v>
  </varray>
  <varray name="tetrahedronlist"  type="int" >
   <v type="int" >        4        2        2        4        9 </v>
   <v type="int" >        4        1        2        2        9 </v>
   <v type="int" >        4        1        2        8        9 </v>
   <v type="int" >        4        2        4        9       11 </v>
   <v type="int" >        4        2        9        9       11 </v>
   <v type="int" >        4        2        8        9        9 </v>
   <v type="int" >        4        3        4        5       11 </v>
   <v type="int" >        4        2        3        4       11 </v>
   <v type="int" >        4        2        3        9       11 </v>
   <v type="int" >        4        3        5       11       12 </v>
   <v type="int" >        4        3       10       11       12 </v>
   <v type="int" >        4        3        9       10       11 </v>
   <v type="int" >        4        2        5        6       12 </v>
   <v type="int" >        4        2        3        5       12 </v>
   <v type="int" >        4        2        3       10       12 </v>
   <v type="int" >        4        2        6       12       13 </v>
   <v type="int" >        4        2        9       12       13 </v>
   <v type="int" >        4        2        9       10       12 </v>
   <v type="int" >        4        1        2        6       13 </v>
   <v type="int" >        4        1        2        9       13 </v>
   <v type="int" >        4        1        8        9       13 </v>
   <v type="int" >        4        3        4        5       10 </v>
   <v type="int" >        4        2        3        4       10 </v>
   <v type="int" >        4        2        4        9       10 </v>
   <v type="int" >        4        4        5       10       12 </v>
   <v type="int" >        4        4       10       11       12 </v>
   <v type="int" >        4        4        9       10       11 </v>
   <v type="int" >        4        5        5        7       12 </v>
   <v type="int" >        4        4        5        5       12 </v>
   <v type="int" >        4        4        5       11       12 </v>
   <v type="int" >        4        5        7       12       14 </v>
   <v type="int" >        4        5       12       12       14 </v>
   <v type="int" >        4        5       11       12       12 </v>
   <v type="int" >        4        5        6        7       14 </v>
   <v type="int" >        4        5        6       12       14 </v>
   <v type="int" >        4        6       12       13       14 </v>
   <v type="int" >        4        2        5        6        9 </v>
   <v type="int" >        4        2        3        5        9 </v>
   <v type="int" >        4        3        5        9       10 </v>
   <v type="int" >        4        5        6        9       13 </v>
   <v type="int" >        4        5        9       12       13 </v>
   <v type="int" >        4        5        9       10       12 </v>
   <v type="int" >        4        5        6        7       13 </v>
   <v type="int" >        4        5        7       12       13 </v>
   <v type="int" >        4        7       12       13       14 </v>
   <v type="int" >        4        1        2        6        8 </v>
   <v type="int" >        4        2        6        8        9 </v>
   <v type="int" >        4        6        8        9       13 </v>
   <v type="int" >        4        9        9       11       16 </v>
   <v type="int" >        4        8        9        9       16 </v>
   <v type="int" >        4        8        9       15       16 </v>
   <v type="int" >        4        9       11       16       18 </v>
   <v type="int" >        4        9       16       16       18 </v>
   <v type="int" >        4        9       15       16       16 </v>
   <v type="int" >        4       10       11       12       18 </v>
   <v type="int" >        4        9       10       11       18 </v>
   <v type="int" >        4        9       10       16       18 </v>
   <v type="int" >        4       10       12       18       19 </v>
   <v type="int" >        4       10       17       18       19 </v>
   <v type="int" >        4       10       16       17       18 </v>
   <v type="int" >        4        9       12       13       19 </v>
   <v type="int" >        4        9       10       12       19 </v>
   <v type="int" >        4        9       10       17       19 </v>
   <v type="int" >        4        9       13       19       20 </v>
   <v type="int" >        4        9       16       19       20 </v>
   <v type="int" >        4        9       16       17       19 </v>
   <v type="int" >        4        8        9       13       20 </v>
   <v type="int" >        4        8        9       16       20 </v>
   <v type="int" >        4        8       15       16       20 </v>
   <v type="int" >        4       10       11       12       17 </v>
   <v type="int" >        4        9       10       11       17 </v>
   <v type="int" >        4        9       11       16       17 </v>
   <v type="int" >        4       11       12       17       19 </v>
   <v type="int" >        4       11       17       18       19 </v>
   <v type="int" >        4       11       16       17       18 </v>
   <v type="int" >        4       12       12       14       19 </v>
   <v type="int" >        4       11       12       12       19 </v>
   <v type="int" >        4       11       12       18       19 </v>
   <v type="int" >        4       12       14       19       21 </v>
   <v type="int" >        4       12       19       19       21 </v>
   <v type="int" >        4       12       18       19       19 </v>
   <v type="int" >        4       12       13       14       21 </v>
   <v type="int" >        4       12       13       19       21 </v>
   <v type="int" >        4       13       19       20       21 </v>
   <v type="int" >        4        9       12       13       16 </v>
   <v type="int" >        4        9       10       12       16 </v>
   <v type="int" >        4       10       12       16       17 </v>
   <v type="int" >        4       12       13       16       20 </v>
   <v type="int" >        4       12       16       19       20 </v>
   <v type="int" >        4       12       16       17       19 </v>
   <v type="int" >        4       12       13       14       20 </v>
   <v type="int" >        4       12       14       19       20 </v>
   <v type="int" >        4       14       19       20       21 </v>
   <v type="int" >        4        8        9       13       15 </v>
   <v type="int" >        4        9       13       15       16 </v>
   <v type="int" >        4       13       15       16       20 </v>
   <v type="int" >        4       16       16       18       23 </v>
   <v type="int" >        4       15       16       16       23 </v>
   <v type="int" >        4       15       16       22       23 </v>
   <v type="int" >        4       16       18       23       25 </v>
   <v type="int" >        4       16       23       23       25 </v>
   <v type="int" >        4       16       22       23       23 </v>
   <v type="int" >        4       17       18       19       25 </v>
   <v type="int" >        4       16       17       18       25 </v>
   <v type="int" >        4       16       17       23       25 </v>
   <v type="int" >        4       17       19       25       26 </v>
   <v type="int" >        4       17       24       25       26 </v>
   <v type="int" >        4       17       23       24       25 </v>
   <v type="int" >        4       16       19       20       26 </v>
   <v type="int" >        4       16       17       19       26 </v>
   <v type="int" >        4       16       17       24       26 </v>
   <v type="int" >        4       16       20       26       27 </v>
   <v type="int" >        4       16       23       26       27 </v>
   <v type="int" >        4       16       23       24       26 </v>
   <v type="int" >        4       15       16       20       27 </v>
   <v type="int" >        4       15       16       23       27 </v>
   <v type="int" >        4       15       22       23       27 </v>
   <v type="int" >        4       17       18       19       24 </v>
   <v type="int" >        4       16       17       18       24 </v>
   <v type="int" >        4       16       18       23       24 </v>
   <v type="int" >        4       18       19       24       26 </v>
   <v type="int" >        4       18       24       25       26 </v>
   <v type="int" >        4       18       23       24       25 </v>
   <v type="int" >        4       19       19       21       26 </v>
   <v type="int" >        4       18       19       19       26 </v>
   <v type="int" >        4       18       19       25       26 </v>
   <v type="int" >        4       19       21       26       28 </v>
   <v type="int" >        4       19       26       26       28 </v>
   <v type="int" >        4       19       25       26       26 </v>
   <v type="int" >        4       19       20       21       28 </v>
   <v type="int" >        4       19       20       26       28 </v>
   <v type="int" >        4       20       26       27       28 </v>
   <v type="int" >        4       16       19       20       23 </v>
   <v type="int" >        4       16       17       19       23 </v>
   <v type="int" >        4       17       19       23       24 </v>
   <v type="int" >        4       19       20       23       27 </v>
   <v type="int" >        4       19       23       26       27 </v>
   <v type="int" >        4       19       23       24       26 </v>
   <v type="int" >        4       19       20       21       27 </v>
   <v type="int" >        4       19       21       26       27 </v>
   <v type="int" >        4       21       26       27       28 </v>
   <v type="int" >        4       15       16       20       22 </v>
   <v type="int" >        4       16       20       22       23 </v>
   <v type="int" >        4       20       22       23       27 </v>
   <v type="int" >        4       23       23       25       30 </v>
   <v type="int" >        4       22       23       23       30 </v>
   <v type="int" >        4       22       23       29       30 </v>
   <v type="int" >        4       23       25       30       32 </v>
   <v type="int" >        4       23       30       30       32 </v>
   <v type="int" >        4       23       29       30       30 </v>
   <v type="int" >        4       24       25       26       32 </v>
   <v type="int" >        4       23       24       25       32 </v>
   <v type="int" >        4       23       24       30       32 </v>
   <v type="int" >        4       24       26       32       33 </v>
   <v type="int" >        4       24       31       32       33 </v>
   <v type="int" >        4       24       30       31       32 </v>
   <v type="int" >        4       23       26       27       33 </v>
   <v type="int" >        4       23       24       26       33 </v>
   <v type="int" >        4       23       24       31       33 </v>
   <v type="int" >        4       23       27       33       34 </v>
   <v type="int" >        4       23       30       33       34 </v>
   <v type="int" >        4       23       30       31       33 </v>
   <v type="int" >        4       22       23       27       34 </v>
   <v type="int" >        4       22       23       30       34 </v>
   <v type="int" >        4       22       29       30       34 </v>
   <v type="int" >        4       24       25       26       31 </v>
   <v type="int" >        4       23       24       25       31 </v>
   <v type="int" >        4       23       25       30       31 </v>
   <v type="int" >        4       25       26       31       33 </v>
   <v type="int" >        4       25       31       32       33 </v>
   <v type="int" >        4       25       30       31       32 </v>
   <v type="int" >        4       26       26       28       33 </v>
   <v type="int" >        4       25       26       26       33 </v>
   <v type="int" >        4       25       26       32       33 </v>
   <v type="int" >        4       26       28       33       35 </v>
   <v type="int" >        4       26       33       33       35 </v>
   <v type="int" >        4       26       32       33       33 </v>
   <v type="int" >        4       26       27       28       35 </v>
   <v type="int" >        4       26       27       33       35 </v>
   <v type="int" >        4       27       33       34       35 </v>
   <v type="int" >        4       23       26       27       30 </v>
   <v type="int" >        4       23       24       26       30 </v>
   <v type="int" >        4       24       26       30       31 </v>
   <v type="int" >        4       26       27       30       34 </v>
   <v type="int" >        4       26       30       33       34 </v>
   <v type="int" >        4       26       30       31       33 </v>
   <v type="int" >        4       26       27       28       34 </v>
   <v type="int" >        4       26       28       33       34 </v>
   <v type="int" >        4       28       33       34       35 </v>
   <v type="int" >        4       22       23       27       29 </v>
   <v type="int" >        4       23       27       29       30 </v>
   <v type="int" >        4       27       29       30       34 </v>
   <v type="int" >        4       30       30       30       32 </v>
   <v type="int" >        4       29       30       30       30 </v>
   <v type="int" >        2       29       29       30       30 </v>
   <v type="int" >        2       30       30       32       32 </v>
   <v type="int" >        4       31       32       32       33 </v>
   <v type="int" >        4       30       31       32       32 </v>
   <v type="int" >        4       30       30       31       32 </v>
   <v type="int" >        4       31       32       33       33 </v>
   <v type="int" >        4       31       31       32       33 </v>
   <v type="int" >        4       30       31       31       32 </v>
   <v type="int" >        4       30       33       33       34 </v>
   <v type="int" >        4       30       31       33       33 </v>
   <v type="int" >        4       30       31       31       33 </v>
   <v type="int" >        4       30       33       34       34 </v>
   <v type="int" >        4       30       30       33       34 </v>
   <v type="int" >        4       30       30       31       33 </v>
   <v type="int" >        4       29       30       34       34 </v>
   <v type="int" >        4       29       30       30       34 </v>
   <v type="int" >        4       29       29       30       34 </v>
   <v type="int" >        4       33       33       33       35 </v>
   <v type="int" >        4       32       33       33       33 </v>
   <v type="int" >        2       32       32       33       33 </v>
   <v type="int" >        2       33       33       35       35 </v>
   <v type="int" >        4       33       34       35       35 </v>
   <v type="int" >        4       33       33       34       35 </v>
   <v type="int" >        4       33       34       34       35 </v>
  </varray>
  <i name="volumeweight">      0.00115741 </i>
 </kpoints>
 <parameters>
  <separator name="general" >
   <i type="string" name="SYSTEM">unknown system</i>
   <i type="logical" name="LCOMPAT"> F  </i>
  </separator>
  <separator name="electronic" >
   <i type="string" name="PREC">accura</i>
   <i name="ENMAX">    500.00000000</i>
   <i name="ENAUG">    605.39200000</i>
   <i name="EDIFF">      0.00001000</i>
   <i type="int" name="IALGO">    38</i>
   <i type="int" name="IWAVPR">    10</i>
   <i type="int" name="NBANDS">    72</i>
   <i name="NELECT">    121.00000000</i>
   <i type="int" name="TURBO">     0</i>
   <i type="int" name="IRESTART">     0</i>
   <i type="int" name="NREBOOT">     0</i>
   <i type="int" name="NMIN">     0</i>
   <i name="EREF">      0.00000000</i>
   <separator name="electronic smearing" >
    <i type="int" name="ISMEAR">    -5</i>
    <i name="SIGMA">      0.20000000</i>
    <i name="KSPACING">      0.50000000</i>
    <i type="logical" name="KGAMMA"> T  </i>
   </separator>
   <separator name="electronic projectors" >
    <i type="logical" name="LREAL"> F  </i>
    <v name="ROPT">      0.00000000      0.00000000      0.00000000      0.00000000</v>
    <i type="int" name="LMAXPAW">  -100</i>
    <i type="int" name="LMAXMIX">     2</i>
    <i type="logical" name="NLSPLINE"> F  </i>
   </separator>
   <separator name="electronic startup" >
    <i type="int" name="ISTART">     1</i>
    <i type="int" name="ICHARG">     0</i>
    <i type="int" name="INIWAV">     1</i>
   </separator>
   <separator name="electronic spin" >
    <i type="int" name="ISPIN">     1</i>
    <i type="logical" name="LNONCOLLINEAR"> F  </i>
    <v name="MAGMOM">      1.00000000      1.00000000      1.00000000      1.00000000      1.00000000      1.00000000      1.00000000      1.00000000      1.00000000      1.00000000      1.00000000      1.00000000      1.00000000      1.00000000      1.00000000</v>
    <i name="NUPDOWN">     -1.00000000</i>
    <i type="logical" name="LSORBIT"> F  </i>
    <v name="SAXIS">      0.00000000      0.00000000      1.00000000</v>
    <i type="logical" name="LSPIRAL"> F  </i>
    <v name="QSPIRAL">      0.00000000      0.00000000      0.00000000</v>
    <i type="logical" name="LZEROZ"> F  </i>
   </separator>
   <separator name="electronic exchange-correlation" >
    <i type="logical" name="LASPH"> F  </i>
    <i type="logical" name="LMETAGGA"> F  </i>
   </separator>
   <separator name="electronic convergence" >
    <i type="int" name="NELM">    60</i>
    <i type="int" name="NELMDL">     0</i>
    <i type="int" name="NELMIN">     2</i>
    <i name="ENINI">    500.00000000</i>
    <separator name="electronic convergence detail" >
     <i type="logical" name="LDIAG"> T  </i>
     <i type="logical" name="LSUBROT"> F  </i>
     <i name="WEIMIN">      0.00000000</i>
     <i name="EBREAK">      0.00000003</i>
     <i name="DEPER">      0.30000000</i>
     <i type="int" name="NRMM">     4</i>
     <i name="TIME">      0.40000000</i>
    </separator>
   </separator>
   <separator name="electronic mixer" >
    <i name="AMIX">      0.40000000</i>
    <i name="BMIX">      1.00000000</i>
    <i name="AMIN">      0.10000000</i>
    <i name="AMIX_MAG">      1.60000000</i>
    <i name="BMIX_MAG">      1.00000000</i>
    <separator name="electronic mixer details" >
     <i type="int" name="IMIX">     4</i>
     <i type="logical" name="MIXFIRST"> F  </i>
     <i type="int" name="MAXMIX">   -45</i>
     <i name="WC">    100.00000000</i>
     <i type="int" name="INIMIX">     1</i>
     <i type="int" name="MIXPRE">     1</i>
     <i type="int" name="MREMOVE">     5</i>
    </separator>
   </separator>
   <separator name="electronic dipolcorrection" >
    <i type="logical" name="LDIPOL"> F  </i>
    <i type="logical" name="LMONO"> F  </i>
    <i type="int" name="IDIPOL">     0</i>
    <i name="EPSILON">      1.00000000</i>
    <v name="DIPOL">   -100.00000000   -100.00000000   -100.00000000</v>
    <i name="EFIELD">      0.00000000</i>
   </separator>
  </separator>
  <separator name="grids" >
   <i type="int" name="NGX">    70</i>
   <i type="int" name="NGY">    70</i>
   <i type="int" name="NGZ">    30</i>
   <i type="int" name="NGXF">   140</i>
   <i type="int" name="NGYF">   140</i>
   <i type="int" name="NGZF">    60</i>
   <i type="logical" name="ADDGRID"> F  </i>
  </separator>
  <separator name="ionic" >
   <i type="int" name="NSW">     0</i>
   <i type="int" name="IBRION">    -1</i>
   <i type="int" name="MDALGO">     0</i>
   <i type="int" name="ISIF">     2</i>
   <i name="PSTRESS">      0.00000000</i>
   <i name="EDIFFG">     -0.01000000</i>
   <i type="int" name="NFREE">     0</i>
   <i name="POTIM">      0.50000000</i>
   <i name="SMASS">     -3.00000000</i>
   <i name="SCALEE">      1.00000000</i>
  </separator>
  <separator name="ionic md" >
   <i name="TEBEG">      0.00010000</i>
   <i name="TEEND">      0.00010000</i>
   <i type="int" name="NBLOCK">     1</i>
   <i type="int" name="KBLOCK">     1</i>
   <i type="int" name="NPACO">   256</i>
   <i name="APACO">     16.00000000</i>
  </separator>
  <separator name="symmetry" >
   <i type="int" name="ISYM">     2</i>
   <i name="SYMPREC">      0.00001000</i>
  </separator>
  <separator name="dos" >
   <i type="int" name="LORBIT">     0</i>
   <v name="RWIGS">     -1.00000000     -1.00000000     -1.00000000     -1.00000000</v>
   <i type="int" name="NEDOS">   301</i>
   <i name="EMIN">     10.00000000</i>
   <i name="EMAX">    -10.00000000</i>
   <i name="EFERMI">      0.00000000</i>
  </separator>
  <separator name="writing" >
   <i type="int" name="NWRITE">     2</i>
   <i type="logical" name="LWAVE"> T  </i>
   <i type="logical" name="LDOWNSAMPLE"> F  </i>
   <i type="logical" name="LCHARG"> T  </i>
   <i type="logical" name="LPARD"> F  </i>
   <i type="logical" name="LVTOT"> F  </i>
   <i type="logical" name="LVHAR"> F  </i>
   <i type="logical" name="LELF"> F  </i>
   <i type="logical" name="LOPTICS"> F  </i>
   <v name="STM">      0.00000000      0.00000000      0.00000000      0.00000000      0.00000000      0.00000000      0.00000000</v>
  </separator>
  <separator name="performance" >
   <i type="int" name="NPAR">     4</i>
   <i type="int" name="NSIM">     4</i>
   <i type="int" name="NBLK">    -1</i>
   <i type="logical" name="LPLANE"> T  </i>
   <i type="logical" name="LSCALAPACK"> T  </i>
   <i type="logical" name="LSCAAWARE"> F  </i>
   <i type="logical" name="LSCALU"> F  </i>
   <i type="logical" name="LASYNC"> F  </i>
   <i type="logical" name="LORBITALREAL"> F  </i>
  </separator>
  <separator name="miscellaneous" >
   <i type="int" name="IDIOT">     3</i>
   <i type="int" name="ISPECIAL">     0</i>
   <i type="logical" name="LMUSIC"> F  </i>
   <v name="POMASS">     92.91000000     16.00000000     87.62000000     47.88000000</v>
   <v name="DARWINR">      0.00000000      0.00000000      0.00000000      0.00000000</v>
   <v name="DARWINV">      1.00000000      1.00000000      1.00000000      1.00000000</v>
   <i type="logical" name="LCORR"> T  </i>
  </separator>
  <i type="logical" name="GGA_COMPAT"> T  </i>
  <i type="logical" name="LBERRY"> F  </i>
  <i type="int" name="ICORELEVEL">     0</i>
  <i type="logical" name="LDAU"> F  </i>
  <i type="int" name="I_CONSTRAINED_M">     0</i>
  <separator name="electronic exchange-correlation" >
   <i type="string" name="GGA">--</i>
   <i type="int" name="VOSKOWN">     0</i>
   <i type="logical" name="LHFCALC"> F  </i>
   <i type="string" name="PRECFOCK"></i>
   <i type="logical" name="LSYMGRAD"> F  </i>
   <i type="logical" name="LHFONE"> F  </i>
   <i type="logical" name="LRHFCALC"> F  </i>
   <i type="logical" name="LTHOMAS"> F  </i>
   <i type="logical" name="LMODELHF"> F  </i>
   <i name="ENCUT4O">     -1.00000000</i>
   <i type="int" name="EXXOEP">     0</i>
   <i type="int" name="FOURORBIT">     0</i>
   <i name="AEXX">      0.00000000</i>
   <i name="HFALPHA">      0.00000000</i>
   <i name="MCALPHA">      0.00000000</i>
   <i name="ALDAX">      1.00000000</i>
   <i name="AGGAX">      1.00000000</i>
   <i name="ALDAC">      1.00000000</i>
   <i name="AGGAC">      1.00000000</i>
   <i type="int" name="NKREDX">     1</i>
   <i type="int" name="NKREDY">     1</i>
   <i type="int" name="NKREDZ">     1</i>
   <i type="logical" name="SHIFTRED"> F  </i>
   <i type="logical" name="ODDONLY"> F  </i>
   <i type="logical" name="EVENONLY"> F  </i>
   <i type="int" name="LMAXFOCK">     0</i>
   <i type="int" name="NMAXFOCKAE">     0</i>
   <i type="logical" name="LFOCKAEDFT"> F  </i>
   <i name="HFSCREEN">      0.00000000</i>
   <i name="HFSCREENC">      0.00000000</i>
   <i type="int" name="NBANDSGWLOW">     0</i>
  </separator>
  <separator name="vdW DFT" >
   <i type="logical" name="LUSE_VDW"> F  </i>
   <i name="Zab_VDW">     -0.84910000</i>
   <i name="PARAM1">      0.12340000</i>
   <i name="PARAM2">      1.00000000</i>
   <i name="PARAM3">      0.00000000</i>
  </separator>
  <separator name="model GW" >
   <i type="int" name="MODEL_GW">     0</i>
   <i name="MODEL_EPS0">      7.58316247</i>
   <i name="MODEL_ALPHA">      1.00000000</i>
  </separator>
  <separator name="linear response parameters" >
   <i type="logical" name="LEPSILON"> F  </i>
   <i type="logical" name="LRPA"> F  </i>
   <i type="logical" name="LNABLA"> F  </i>
   <i type="logical" name="LVEL"> F  </i>
   <i type="int" name="KINTER">     0</i>
   <i name="CSHIFT">      0.10000000</i>
   <i name="OMEGAMAX">     -1.00000000</i>
   <i name="DEG_THRESHOLD">      0.00200000</i>
   <i name="RTIME">     -0.10000000</i>
   <i name="WPLASMAI">      0.00000000</i>
   <v name="DFIELD">      0.00000000      0.00000000      0.00000000</v>
   <v name="WPLASMA">      0.00000000      0.00000000      0.00000000      0.00000000      0.00000000      0.00000000      0.00000000      0.00000000      0.00000000</v>
  </separator>
  <separator name="orbital magnetization" >
   <i type="logical" name="NUCIND"> F  </i>
   <v name="MAGPOS">      0.00000000      0.00000000      0.00000000</v>
   <i type="logical" name="LNICSALL"> T  </i>
   <i type="logical" name="ORBITALMAG"> F  </i>
   <i type="logical" name="LMAGBLOCH"> F  </i>
   <i type="logical" name="LCHIMAG"> F  </i>
   <i type="logical" name="LGAUGE"> T  </i>
   <i type="int" name="MAGATOM">     0</i>
   <v name="MAGDIPOL">      0.00000000      0.00000000      0.00000000</v>
   <v name="AVECCONST">      0.00000000      0.00000000      0.00000000</v>
  </separator>
  <separator name="response functions" >
   <i type="logical" name="LADDER"> F  </i>
   <i type="logical" name="LRPAFORCE"> F  </i>
   <i type="logical" name="LFXC"> F  </i>
   <i type="logical" name="LHARTREE"> T  </i>
   <i type="int" name="IBSE">     0</i>
   <v type="int" name="KPOINT">    -1     0     0     0</v>
   <i type="logical" name="LTCTE"> F  </i>
   <i type="logical" name="LTETE"> F  </i>
   <i type="logical" name="LTRIPLET"> F  </i>
   <i type="logical" name="LFXCEPS"> F  </i>
   <i type="logical" name="LFXHEG"> F  </i>
   <i type="int" name="NATURALO">     2</i>
   <i type="logical" name="L2ORDER"> F  </i>
   <i type="logical" name="LMP2LT"> F  </i>
   <i type="logical" name="LUSEW"> F  </i>
   <i name="ENCUTGW">     -2.00000000</i>
   <i name="ENCUTGWSOFT">     -2.00000000</i>
   <i name="ENCUTLF">     -1.00000000</i>
   <i type="int" name="LMAXMP2">    -1</i>
   <i name="SCISSOR">      0.00000000</i>
   <i type="int" name="NOMEGA">     0</i>
   <i type="int" name="NOMEGAR">     0</i>
   <i type="int" name="NBANDSGW">    -1</i>
   <i type="int" name="NBANDSO">    -1</i>
   <i type="int" name="NBANDSV">    -1</i>
   <i type="int" name="NELM">     1</i>
   <i type="int" name="NELMHF">     1</i>
   <i type="int" name="DIM">     3</i>
   <i type="int" name="ANTIRES">     0</i>
   <i name="OMEGAMAX">    -30.00000000</i>
   <i name="OMEGAMIN">    -30.00000000</i>
   <i name="OMEGATL">   -200.00000000</i>
   <i type="int" name="OMEGAGRID">   140</i>
   <i name="CSHIFT">     -0.10000000</i>
   <i type="logical" name="SELFENERGY"> F  </i>
   <i type="logical" name="LSPECTRAL"> F  </i>
   <i type="logical" name="LSPECTRALGW"> F  </i>
   <i type="logical" name="LSINGLES"> F  </i>
   <i type="logical" name="LFERMIGW"> F  </i>
   <i type="logical" name="ODDONLYGW"> F  </i>
   <i type="logical" name="EVENONLYGW"> F  </i>
   <i type="int" name="NKREDLFX">     1</i>
   <i type="int" name="NKREDLFY">     1</i>
   <i type="int" name="NKREDLFZ">     1</i>
   <i type="int" name="MAXMEM">  2800</i>
   <i type="int" name="TELESCOPE">     0</i>
   <i type="int" name="TAUPAR">     1</i>
   <i type="int" name="OMEGAPAR">    -1</i>
   <i name="LAMBDA">      1.00000000</i>
  </separator>
  <separator name="External order field" >
   <i name="OFIELD_KAPPA">      0.00000000</i>
   <v name="OFIELD_K">      0.00000000      0.00000000      0.00000000</v>
   <i name="OFIELD_Q6_NEAR">      0.00000000</i>
   <i name="OFIELD_Q6_FAR">      0.00000000</i>
   <i name="OFIELD_A">      0.00000000</i>
  </separator>
 </parameters>
 <atominfo>
  <atoms>      15 </atoms>
  <types>       4 </types>
  <array name="atoms" >
   <dimension dim="1">ion</dimension>
   <field type="string">element</field>
   <field type="int">atomtype</field>
   <set>
    <rc><c>Nb</c><c>   1</c></rc>
    <rc><c>O </c><c>   2</c></rc>
    <rc><c>O </c><c>   2</c></rc>
    <rc><c>O </c><c>   2</c></rc>
    <rc><c>O </c><c>   2</c></rc>
    <rc><c>O </c><c>   2</c></rc>
    <rc><c>O </c><c>   2</c></rc>
    <rc><c>O </c><c>   2</c></rc>
    <rc><c>O </c><c>   2</c></rc>
    <rc><c>O </c><c>   2</c></rc>
    <rc><c>Sr</c><c>   3</c></rc>
    <rc><c>Sr</c><c>   3</c></rc>
    <rc><c>Sr</c><c>   3</c></rc>
    <rc><c>Ti</c><c>   4</c></rc>
    <rc><c>Ti</c><c>   4</c></rc>
   </set>
  </array>
  <array name="atomtypes" >
   <dimension dim="1">type</dimension>
   <field type="int">atomspertype</field>
   <field type="string">element</field>
   <field>mass</field>
   <field>valence</field>
   <field type="string">pseudopotential</field>
   <set>
    <rc><c>   1</c><c>Nb</c><c>     92.91000000</c><c>     13.00000000</c><c>  PAW_PBE Nb_sv 25May2007               </c></rc>
    <rc><c>   9</c><c>O </c><c>     16.00000000</c><c>      6.00000000</c><c>  PAW_PBE O 08Apr2002                   </c></rc>
    <rc><c>   3</c><c>Sr</c><c>     87.62000000</c><c>     10.00000000</c><c>  PAW_PBE Sr_sv 07Sep2000               </c></rc>
    <rc><c>   2</c><c>Ti</c><c>     47.88000000</c><c>     12.00000000</c><c>  PAW_PBE Ti_sv 26Sep2005               </c></rc>
   </set>
  </array>
 </atominfo>
 <structure name="initialpos" >
  <crystal>
   <varray name="basis" >
    <v>       0.00000000       3.98162565      -7.96116599 </v>
    <v>       0.00000000      -7.96116599       3.98162565 </v>
    <v>      -3.98888579       0.00000000       0.00000000 </v>
   </varray>
   <i name="volume">    189.57906175 </i>
   <varray name="rec_basis" >
    <v>       0.00000000      -0.08377639      -0.16750891 </v>
    <v>       0.00000000      -0.16750891      -0.08377639 </v>
    <v>      -0.25069657       0.00000000       0.00000000 </v>
   </varray>
  </crystal>
  <varray name="positions" >
   <v>       0.16666667       0.83333333       0.50000000 </v>
   <v>       0.16666667       0.83333333       0.00000000 </v>
   <v>       0.99827982       0.49827207       0.50000000 </v>
   <v>       0.83160540       0.66494649       0.50000000 </v>
   <v>       0.83388112       0.16611888       0.00000000 </v>
   <v>       0.66666667       0.83333333       0.50000000 </v>
   <v>       0.50172793       0.00172018       0.50000000 </v>
   <v>       0.49945221       0.50054779       0.00000000 </v>
   <v>       0.33505351       0.16839460       0.50000000 </v>
   <v>       0.16666667       0.33333333       0.50000000 </v>
   <v>       0.66666667       0.33333333       0.00000000 </v>
   <v>       0.33923426       0.66076574       0.00000000 </v>
   <v>       0.99409908       0.00590092       0.00000000 </v>
   <v>       0.83476685       0.16523315       0.50000000 </v>
   <v>       0.49856649       0.50143351       0.50000000 </v>
  </varray>
 </structure>
 <calculation>
  <scstep>
   <time name="dav">    2.08    2.08</time>
   <time name="total">    2.30    2.31</time>
   <energy>
    <i name="alphaZ">    670.93923056 </i>
    <i name="ewald">  -8662.38128213 </i>
    <i name="hartreedc">  -2596.76510313 </i>
    <i name="XCdc">    543.25689489 </i>
    <i name="pawpsdc">  13728.61208916 </i>
    <i name="pawaedc"> -13655.11876475 </i>
    <i name="eentropy">      0.00000000 </i>
    <i name="bandstr">  -1301.64125490 </i>
    <i name="atom">  11151.65365166 </i>
    <i name="e_fr_energy">   -121.44453864 </i>
    <i name="e_wo_entrp">   -121.44453864 </i>
    <i name="e_0_energy">   -121.44453864 </i>
   </energy>
  </scstep>
  <scstep>
   <time name="dav">    2.19    2.19</time>
   <time name="total">    2.40    2.41</time>
   <energy>
    <i name="e_fr_energy">   -121.44457663 </i>
    <i name="e_wo_entrp">   -121.44457663 </i>
    <i name="e_0_energy">   -121.44457663 </i>
   </energy>
  </scstep>
  <scstep>
   <time name="dav">    1.78    1.79</time>
   <time name="total">    1.99    2.00</time>
   <energy>
    <i name="e_fr_energy">   -121.44454597 </i>
    <i name="e_wo_entrp">   -121.44454597 </i>
    <i name="e_0_energy">   -121.44454597 </i>
   </energy>
  </scstep>
  <scstep>
   <time name="dav">    1.61    1.61</time>
   <time name="total">    1.82    1.82</time>
   <energy>
    <i name="e_fr_energy">   -121.44456266 </i>
    <i name="e_wo_entrp">   -121.44456266 </i>
    <i name="e_0_energy">   -121.44456266 </i>
   </energy>
  </scstep>
  <scstep>
   <time name="dav">    1.52    1.52</time>
   <time name="total">    1.58    1.58</time>
   <energy>
    <i name="alphaZ">    670.93923056 </i>
    <i name="ewald">  -8662.38128213 </i>
    <i name="hartreedc">  -2596.80814493 </i>
    <i name="XCdc">    543.25960098 </i>
    <i name="pawpsdc">  13723.65419981 </i>
    <i name="pawaedc"> -13650.13668523 </i>
    <i name="eentropy">      0.00000000 </i>
    <i name="bandstr">  -1301.62513293 </i>
    <i name="atom">  11151.65365166 </i>
    <i name="e_fr_energy">   -121.44456220 </i>
    <i name="e_wo_entrp">   -121.44456220 </i>
    <i name="e_0_energy">   -121.44456220 </i>
   </energy>
  </scstep>
  <structure>
   <crystal>
    <varray name="basis" >
     <v>       0.00000000       3.98162565      -7.96116599 </v>
     <v>       0.00000000      -7.96116599       3.98162565 </v>
     <v>      -3.98888579       0.00000000       0.00000000 </v>
    </varray>
    <i name="volume">    189.57906175 </i>
    <varray name="rec_basis" >
     <v>       0.00000000      -0.08377639      -0.16750891 </v>
     <v>       0.00000000      -0.16750891      -0.08377639 </v>
     <v>      -0.25069657       0.00000000       0.00000000 </v>
    </varray>
   </crystal>
   <varray name="positions" >
    <v>       0.16666667       0.83333333       0.50000000 </v>
    <v>       0.16666667       0.83333333       0.00000000 </v>
    <v>       0.99827982       0.49827207       0.50000000 </v>
    <v>       0.83160540       0.66494649       0.50000000 </v>
    <v>       0.83388112       0.16611888       0.00000000 </v>
    <v>       0.66666667       0.83333333       0.50000000 </v>
    <v>       0.50172793       0.00172018       0.50000000 </v>
    <v>       0.49945221       0.50054779       0.00000000 </v>
    <v>       0.33505351       0.16839460       0.50000000 </v>
    <v>       0.16666667       0.33333333       0.50000000 </v>
    <v>       0.66666667       0.33333333       0.00000000 </v>
    <v>       0.33923426       0.66076574       0.00000000 </v>
    <v>       0.99409908       0.00590092       0.00000000 </v>
    <v>       0.83476685       0.16523315       0.50000000 </v>
    <v>       0.49856649       0.50143351       0.50000000 </v>
   </varray>
  </structure>
  <varray name="forces" >
   <v>       0.00000000       0.00000000       0.00000000 </v>
   <v>       0.00000000       0.00000000      -0.00000000 </v>
   <v>       0.00000000       0.00358917       0.00112602 </v>
   <v>       0.00000000       0.00112602       0.00358917 </v>
   <v>       0.00000000      -0.00239560       0.00239560 </v>
   <v>       0.00000000       0.00000000       0.00000000 </v>
   <v>       0.00000000      -0.00112602      -0.00358917 </v>
   <v>       0.00000000       0.00239560      -0.00239560 </v>
   <v>       0.00000000      -0.00358917      -0.00112602 </v>
   <v>       0.00000000       0.00000000      -0.00000000 </v>
   <v>       0.00000000       0.00000000       0.00000000 </v>
   <v>       0.00000000      -0.00384659       0.00384659 </v>
   <v>       0.00000000       0.00384659      -0.00384659 </v>
   <v>       0.00000000      -0.00292943       0.00292943 </v>
   <v>       0.00000000       0.00292943      -0.00292943 </v>
  </varray>
  <varray name="stress" >
   <v>       1.67187117       0.00000000       0.00000000 </v>
   <v>       0.00000000       0.98737346       0.03283869 </v>
   <v>       0.00000000       0.03283869       0.98737346 </v>
  </varray>
  <energy>
   <i name="e_fr_energy">   -121.44456220 </i>
   <i name="e_wo_entrp">   -121.44456220 </i>
   <i name="e_0_energy">      0.00000000 </i>
  </energy>
  <time name="totalsc">   13.27   15.65</time>
  <eigenvalues>
   <array>
    <dimension dim="1">band</dimension>
    <dimension dim="2">kpoint</dimension>
    <dimension dim="3">spin</dimension>
    <field>eigene</field>
    <field>occ</field>
    <set>
     <set comment="spin 1">
      <set comment="kpoint 1">
       <r>  -51.8819    1.0000 </r>
       <r>  -51.8805    1.0000 </r>
       <r>  -50.3454    1.0000 </r>
       <r>  -29.0387    1.0000 </r>
       <r>  -28.8941    1.0000 </r>
       <r>  -28.8710    1.0000 </r>
       <r>  -28.1909    1.0000 </r>
       <r>  -28.1823    1.0000 </r>
       <r>  -28.1589    1.0000 </r>
       <r>  -28.1545    1.0000 </r>
       <r>  -28.0988    1.0000 </r>
       <r>  -28.0963    1.0000 </r>
       <r>  -26.5596    1.0000 </r>
       <r>  -26.5508    1.0000 </r>
       <r>  -26.5052    1.0000 </r>
       <r>  -13.5449    1.0000 </r>
       <r>  -13.0928    1.0000 </r>
       <r>  -12.8456    1.0000 </r>
       <r>  -12.6172    1.0000 </r>
       <r>  -12.5979    1.0000 </r>
       <r>  -12.3444    1.0000 </r>
       <r>  -12.2934    1.0000 </r>
       <r>  -11.9983    1.0000 </r>
       <r>  -11.9746    1.0000 </r>
       <r>  -10.9951    1.0000 </r>
       <r>  -10.9479    1.0000 </r>
       <r>  -10.9208    1.0000 </r>
       <r>  -10.8612    1.0000 </r>
       <r>  -10.8107    1.0000 </r>
       <r>  -10.6765    1.0000 </r>
       <r>  -10.5516    1.0000 </r>
       <r>  -10.5507    1.0000 </r>
       <r>  -10.5436    1.0000 </r>
       <r>   -0.2988    1.0000 </r>
       <r>   -0.1334    1.0000 </r>
       <r>    0.0598    1.0000 </r>
       <r>    0.1536    1.0000 </r>
       <r>    0.4876    1.0000 </r>
       <r>    0.6792    1.0000 </r>
       <r>    1.0787    1.0000 </r>
       <r>    1.2943    1.0000 </r>
       <r>    1.3918    1.0000 </r>
       <r>    1.3946    1.0000 </r>
       <r>    1.4050    1.0000 </r>
       <r>    1.4812    1.0000 </r>
       <r>    1.7109    1.0000 </r>
       <r>    1.8940    1.0000 </r>
       <r>    2.0528    1.0000 </r>
       <r>    2.5059    1.0000 </r>
       <r>    2.5712    1.0000 </r>
       <r>    2.8310    1.0000 </r>
       <r>    2.8451    1.0000 </r>
       <r>    2.8493    1.0000 </r>
       <r>    2.9052    1.0000 </r>
       <r>    2.9674    1.0000 </r>
       <r>    3.4690    1.0000 </r>
       <r>    3.5428    1.0000 </r>
       <r>    3.6235    1.0000 </r>
       <r>    3.6536    1.0000 </r>
       <r>    3.7081    1.0000 </r>
       <r>    6.1052    1.0000 </r>
       <r>    6.1135    1.2475 </r>
       <r>    6.1243    1.2277 </r>
       <r>    7.6689    0.0000 </r>
       <r>    7.6948    0.0000 </r>
       <r>    7.7650    0.0000 </r>
       <r>    7.7813    0.0000 </r>
       <r>    8.1243    0.0000 </r>
       <r>    8.2589    0.0000 </r>
       <r>    8.7626    0.0000 </r>
       <r>    8.8334    0.0000 </r>
       <r>    9.3328    0.0000 </r>
      </set>
      <set comment="kpoint 2">
       <r>  -51.8817    1.0000 </r>
       <r>  -51.8807    1.0000 </r>
       <r>  -50.3454    1.0000 </r>
       <r>  -29.0400    1.0000 </r>
       <r>  -28.8934    1.0000 </r>
       <r>  -28.8770    1.0000 </r>
       <r>  -28.1864    1.0000 </r>
       <r>  -28.1822    1.0000 </r>
       <r>  -28.1566    1.0000 </r>
       <r>  -28.1550    1.0000 </r>
       <r>  -28.0985    1.0000 </r>
       <r>  -28.0966    1.0000 </r>
       <r>  -26.5570    1.0000 </r>
       <r>  -26.5506    1.0000 </r>
       <r>  -26.5052    1.0000 </r>
       <r>  -13.6356    1.0000 </r>
       <r>  -13.1419    1.0000 </r>
       <r>  -13.0462    1.0000 </r>
       <r>  -12.7333    1.0000 </r>
       <r>  -12.4593    1.0000 </r>
       <r>  -12.1912    1.0000 </r>
       <r>  -12.1370    1.0000 </r>
       <r>  -12.0192    1.0000 </r>
       <r>  -11.9900    1.0000 </r>
       <r>  -10.9953    1.0000 </r>
       <r>  -10.9031    1.0000 </r>
       <r>  -10.8564    1.0000 </r>
       <r>  -10.8316    1.0000 </r>
       <r>  -10.8192    1.0000 </r>
       <r>  -10.7410    1.0000 </r>
       <r>  -10.6706    1.0000 </r>
       <r>  -10.4797    1.0000 </r>
       <r>  -10.4161    1.0000 </r>
       <r>   -0.4571    1.0000 </r>
       <r>   -0.1783    1.0000 </r>
       <r>    0.0214    1.0000 </r>
       <r>    0.6940    1.0000 </r>
       <r>    0.7871    1.0000 </r>
       <r>    1.0228    1.0000 </r>
       <r>    1.1742    1.0000 </r>
       <r>    1.1963    1.0000 </r>
       <r>    1.2546    1.0000 </r>
       <r>    1.3205    1.0000 </r>
       <r>    1.3935    1.0000 </r>
       <r>    1.5448    1.0000 </r>
       <r>    1.6858    1.0000 </r>
       <r>    1.8428    1.0000 </r>
       <r>    1.9415    1.0000 </r>
       <r>    2.2869    1.0000 </r>
       <r>    2.4743    1.0000 </r>
       <r>    2.6031    1.0000 </r>
       <r>    2.6876    1.0000 </r>
       <r>    2.8208    1.0000 </r>
       <r>    2.8869    1.0000 </r>
       <r>    2.9742    1.0000 </r>
       <r>    3.0423    1.0000 </r>
       <r>    3.0699    1.0000 </r>
       <r>    3.3746    1.0000 </r>
       <r>    3.3770    1.0000 </r>
       <r>    3.4771    1.0000 </r>
       <r>    6.3118    1.0029 </r>
       <r>    6.6684    0.3183 </r>
       <r>    6.7827    0.0967 </r>
       <r>    6.8604    0.0000 </r>
       <r>    7.3055    0.0000 </r>
       <r>    8.0328    0.0000 </r>
       <r>    8.0596    0.0000 </r>
       <r>    8.1583    0.0000 </r>
       <r>    8.3722    0.0000 </r>
       <r>    8.8732    0.0000 </r>
       <r>    9.1556    0.0000 </r>
       <r>    9.5681    0.0000 </r>
      </set>
      <set comment="kpoint 3">
       <r>  -51.8812    1.0000 </r>
       <r>  -51.8812    1.0000 </r>
       <r>  -50.3454    1.0000 </r>
       <r>  -29.0413    1.0000 </r>
       <r>  -28.8883    1.0000 </r>
       <r>  -28.8873    1.0000 </r>
       <r>  -28.1820    1.0000 </r>
       <r>  -28.1811    1.0000 </r>
       <r>  -28.1558    1.0000 </r>
       <r>  -28.1551    1.0000 </r>
       <r>  -28.0975    1.0000 </r>
       <r>  -28.0975    1.0000 </r>
       <r>  -26.5543    1.0000 </r>
       <r>  -26.5505    1.0000 </r>
       <r>  -26.5051    1.0000 </r>
       <r>  -13.7202    1.0000 </r>
       <r>  -13.2913    1.0000 </r>
       <r>  -13.0558    1.0000 </r>
       <r>  -12.7643    1.0000 </r>
       <r>  -12.4118    1.0000 </r>
       <r>  -12.1703    1.0000 </r>
       <r>  -12.0157    1.0000 </r>
       <r>  -12.0088    1.0000 </r>
       <r>  -11.9296    1.0000 </r>
       <r>  -10.9959    1.0000 </r>
       <r>  -10.9044    1.0000 </r>
       <r>  -10.8402    1.0000 </r>
       <r>  -10.8388    1.0000 </r>
       <r>  -10.8285    1.0000 </r>
       <r>  -10.7619    1.0000 </r>
       <r>  -10.6536    1.0000 </r>
       <r>  -10.4235    1.0000 </r>
       <r>  -10.3524    1.0000 </r>
       <r>   -0.4685    1.0000 </r>
       <r>   -0.0512    1.0000 </r>
       <r>    0.4231    1.0000 </r>
       <r>    0.6379    1.0000 </r>
       <r>    0.9579    1.0000 </r>
       <r>    1.2132    1.0000 </r>
       <r>    1.2190    1.0000 </r>
       <r>    1.2229    1.0000 </r>
       <r>    1.3532    1.0000 </r>
       <r>    1.3860    1.0000 </r>
       <r>    1.4148    1.0000 </r>
       <r>    1.5179    1.0000 </r>
       <r>    1.5248    1.0000 </r>
       <r>    1.7535    1.0000 </r>
       <r>    1.8127    1.0000 </r>
       <r>    1.9230    1.0000 </r>
       <r>    1.9795    1.0000 </r>
       <r>    2.1112    1.0000 </r>
       <r>    2.4787    1.0000 </r>
       <r>    2.7470    1.0000 </r>
       <r>    2.7489    1.0000 </r>
       <r>    2.9730    1.0000 </r>
       <r>    3.0178    1.0000 </r>
       <r>    3.1047    1.0000 </r>
       <r>    3.2016    1.0000 </r>
       <r>    3.3609    1.0000 </r>
       <r>    3.4092    1.0000 </r>
       <r>    6.3047    1.0083 </r>
       <r>    6.7157    0.0591 </r>
       <r>    6.8709    0.0000 </r>
       <r>    7.6949    0.0000 </r>
       <r>    7.7064    0.0000 </r>
       <r>    7.7187    0.0000 </r>
       <r>    7.8046    0.0000 </r>
       <r>    8.1489    0.0000 </r>
       <r>    8.2265    0.0000 </r>
       <r>    8.7792    0.0000 </r>
       <r>    9.0378    0.0000 </r>
       <r>    9.8022    0.0000 </r>
      </set>
      <set comment="kpoint 4">
       <r>  -51.8812    1.0000 </r>
       <r>  -51.8812    1.0000 </r>
       <r>  -50.3454    1.0000 </r>
       <r>  -29.0413    1.0000 </r>
       <r>  -28.8883    1.0000 </r>
       <r>  -28.8872    1.0000 </r>
       <r>  -28.1821    1.0000 </r>
       <r>  -28.1810    1.0000 </r>
       <r>  -28.1560    1.0000 </r>
       <r>  -28.1549    1.0000 </r>
       <r>  -28.0975    1.0000 </r>
       <r>  -28.0975    1.0000 </r>
       <r>  -26.5543    1.0000 </r>
       <r>  -26.5505    1.0000 </r>
       <r>  -26.5051    1.0000 </r>
       <r>  -13.7188    1.0000 </r>
       <r>  -13.3012    1.0000 </r>
       <r>  -13.0460    1.0000 </r>
       <r>  -12.7432    1.0000 </r>
       <r>  -12.4707    1.0000 </r>
       <r>  -12.0980    1.0000 </r>
       <r>  -12.0394    1.0000 </r>
       <r>  -11.9805    1.0000 </r>
       <r>  -11.9701    1.0000 </r>
       <r>  -10.9959    1.0000 </r>
       <r>  -10.8974    1.0000 </r>
       <r>  -10.8406    1.0000 </r>
       <r>  -10.8402    1.0000 </r>
       <r>  -10.8388    1.0000 </r>
       <r>  -10.7482    1.0000 </r>
       <r>  -10.6672    1.0000 </r>
       <r>  -10.4025    1.0000 </r>
       <r>  -10.3677    1.0000 </r>
       <r>   -0.4550    1.0000 </r>
       <r>   -0.0892    1.0000 </r>
       <r>    0.3889    1.0000 </r>
       <r>    0.8740    1.0000 </r>
       <r>    0.8757    1.0000 </r>
       <r>    1.1465    1.0000 </r>
       <r>    1.2228    1.0000 </r>
       <r>    1.2473    1.0000 </r>
       <r>    1.2993    1.0000 </r>
       <r>    1.3817    1.0000 </r>
       <r>    1.3909    1.0000 </r>
       <r>    1.4085    1.0000 </r>
       <r>    1.5275    1.0000 </r>
       <r>    1.7917    1.0000 </r>
       <r>    1.8068    1.0000 </r>
       <r>    1.9492    1.0000 </r>
       <r>    1.9860    1.0000 </r>
       <r>    2.4188    1.0000 </r>
       <r>    2.4458    1.0000 </r>
       <r>    2.5532    1.0000 </r>
       <r>    2.7397    1.0000 </r>
       <r>    2.7405    1.0000 </r>
       <r>    3.2078    1.0000 </r>
       <r>    3.2207    1.0000 </r>
       <r>    3.2221    1.0000 </r>
       <r>    3.2787    1.0000 </r>
       <r>    3.3947    1.0000 </r>
       <r>    6.4112    1.0064 </r>
       <r>    6.4658    0.8269 </r>
       <r>    7.1900    0.0000 </r>
       <r>    7.3214    0.0000 </r>
       <r>    7.6219    0.0000 </r>
       <r>    7.9322    0.0000 </r>
       <r>    8.0201    0.0000 </r>
       <r>    8.0336    0.0000 </r>
       <r>    8.1931    0.0000 </r>
       <r>    8.8545    0.0000 </r>
       <r>    8.9520    0.0000 </r>
       <r>    9.8017    0.0000 </r>
      </set>
      <set comment="kpoint 5">
       <r>  -51.8817    1.0000 </r>
       <r>  -51.8807    1.0000 </r>
       <r>  -50.3454    1.0000 </r>
       <r>  -29.0401    1.0000 </r>
       <r>  -28.8941    1.0000 </r>
       <r>  -28.8759    1.0000 </r>
       <r>  -28.1861    1.0000 </r>
       <r>  -28.1835    1.0000 </r>
       <r>  -28.1569    1.0000 </r>
       <r>  -28.1539    1.0000 </r>
       <r>  -28.0985    1.0000 </r>
       <r>  -28.0966    1.0000 </r>
       <r>  -26.5570    1.0000 </r>
       <r>  -26.5506    1.0000 </r>
       <r>  -26.5052    1.0000 </r>
       <r>  -13.6443    1.0000 </r>
       <r>  -13.2008    1.0000 </r>
       <r>  -12.9950    1.0000 </r>
       <r>  -12.6413    1.0000 </r>
       <r>  -12.4395    1.0000 </r>
       <r>  -12.2747    1.0000 </r>
       <r>  -12.1367    1.0000 </r>
       <r>  -12.0307    1.0000 </r>
       <r>  -12.0082    1.0000 </r>
       <r>  -10.9952    1.0000 </r>
       <r>  -10.9302    1.0000 </r>
       <r>  -10.8588    1.0000 </r>
       <r>  -10.8521    1.0000 </r>
       <r>  -10.8169    1.0000 </r>
       <r>  -10.6766    1.0000 </r>
       <r>  -10.6291    1.0000 </r>
       <r>  -10.4907    1.0000 </r>
       <r>  -10.4448    1.0000 </r>
       <r>   -0.3356    1.0000 </r>
       <r>   -0.2213    1.0000 </r>
       <r>   -0.0715    1.0000 </r>
       <r>    0.5176    1.0000 </r>
       <r>    0.7353    1.0000 </r>
       <r>    1.1834    1.0000 </r>
       <r>    1.2015    1.0000 </r>
       <r>    1.2182    1.0000 </r>
       <r>    1.3449    1.0000 </r>
       <r>    1.3844    1.0000 </r>
       <r>    1.5190    1.0000 </r>
       <r>    1.5374    1.0000 </r>
       <r>    1.8890    1.0000 </r>
       <r>    1.9469    1.0000 </r>
       <r>    2.0043    1.0000 </r>
       <r>    2.2262    1.0000 </r>
       <r>    2.2494    1.0000 </r>
       <r>    2.3653    1.0000 </r>
       <r>    2.5135    1.0000 </r>
       <r>    2.6175    1.0000 </r>
       <r>    2.6585    1.0000 </r>
       <r>    2.7145    1.0000 </r>
       <r>    3.2056    1.0000 </r>
       <r>    3.2580    1.0000 </r>
       <r>    3.4653    1.0000 </r>
       <r>    3.5116    1.0000 </r>
       <r>    3.6395    1.0000 </r>
       <r>    6.2041    1.0240 </r>
       <r>    6.4058    1.0943 </r>
       <r>    7.2068   -0.0503 </r>
       <r>    7.2108    0.0000 </r>
       <r>    7.6880    0.0000 </r>
       <r>    7.7057    0.0000 </r>
       <r>    7.7377    0.0000 </r>
       <r>    8.0489    0.0000 </r>
       <r>    8.4308    0.0000 </r>
       <r>    8.7595    0.0000 </r>
       <r>    8.9678    0.0000 </r>
       <r>    9.7070    0.0000 </r>
      </set>
      <set comment="kpoint 6">
       <r>  -51.8819    1.0000 </r>
       <r>  -51.8805    1.0000 </r>
       <r>  -50.3454    1.0000 </r>
       <r>  -29.0388    1.0000 </r>
       <r>  -28.8947    1.0000 </r>
       <r>  -28.8700    1.0000 </r>
       <r>  -28.1912    1.0000 </r>
       <r>  -28.1839    1.0000 </r>
       <r>  -28.1587    1.0000 </r>
       <r>  -28.1532    1.0000 </r>
       <r>  -28.0988    1.0000 </r>
       <r>  -28.0963    1.0000 </r>
       <r>  -26.5596    1.0000 </r>
       <r>  -26.5507    1.0000 </r>
       <r>  -26.5052    1.0000 </r>
       <r>  -13.5515    1.0000 </r>
       <r>  -13.0676    1.0000 </r>
       <r>  -12.8889    1.0000 </r>
       <r>  -12.5957    1.0000 </r>
       <r>  -12.5273    1.0000 </r>
       <r>  -12.3652    1.0000 </r>
       <r>  -12.2747    1.0000 </r>
       <r>  -12.0911    1.0000 </r>
       <r>  -11.9895    1.0000 </r>
       <r>  -10.9947    1.0000 </r>
       <r>  -10.9277    1.0000 </r>
       <r>  -10.8640    1.0000 </r>
       <r>  -10.8491    1.0000 </r>
       <r>  -10.8082    1.0000 </r>
       <r>  -10.7319    1.0000 </r>
       <r>  -10.5914    1.0000 </r>
       <r>  -10.5297    1.0000 </r>
       <r>  -10.5155    1.0000 </r>
       <r>   -0.4474    1.0000 </r>
       <r>   -0.2763    1.0000 </r>
       <r>   -0.2419    1.0000 </r>
       <r>    0.4237    1.0000 </r>
       <r>    0.8901    1.0000 </r>
       <r>    1.0619    1.0000 </r>
       <r>    1.0845    1.0000 </r>
       <r>    1.2089    1.0000 </r>
       <r>    1.2425    1.0000 </r>
       <r>    1.3736    1.0000 </r>
       <r>    1.3865    1.0000 </r>
       <r>    1.4813    1.0000 </r>
       <r>    1.9155    1.0000 </r>
       <r>    1.9538    1.0000 </r>
       <r>    2.0699    1.0000 </r>
       <r>    2.4242    1.0000 </r>
       <r>    2.6036    1.0000 </r>
       <r>    2.6774    1.0000 </r>
       <r>    2.6809    1.0000 </r>
       <r>    2.8899    1.0000 </r>
       <r>    2.9741    1.0000 </r>
       <r>    2.9871    1.0000 </r>
       <r>    3.2606    1.0000 </r>
       <r>    3.3449    1.0000 </r>
       <r>    3.4498    1.0000 </r>
       <r>    3.5647    1.0000 </r>
       <r>    3.8101    1.0000 </r>
       <r>    6.2580    1.0184 </r>
       <r>    6.3127    1.1552 </r>
       <r>    6.4235    0.6188 </r>
       <r>    7.1863    0.0000 </r>
       <r>    7.3248    0.0000 </r>
       <r>    7.6342    0.0000 </r>
       <r>    8.0394    0.0000 </r>
       <r>    8.0669    0.0000 </r>
       <r>    8.5902    0.0000 </r>
       <r>    8.8405    0.0000 </r>
       <r>    9.1436    0.0000 </r>
       <r>    9.3083    0.0000 </r>
      </set>
      <set comment="kpoint 7">
       <r>  -51.8819    1.0000 </r>
       <r>  -51.8805    1.0000 </r>
       <r>  -50.3454    1.0000 </r>
       <r>  -29.0389    1.0000 </r>
       <r>  -28.8953    1.0000 </r>
       <r>  -28.8691    1.0000 </r>
       <r>  -28.1914    1.0000 </r>
       <r>  -28.1853    1.0000 </r>
       <r>  -28.1584    1.0000 </r>
       <r>  -28.1519    1.0000 </r>
       <r>  -28.0988    1.0000 </r>
       <r>  -28.0963    1.0000 </r>
       <r>  -26.5596    1.0000 </r>
       <r>  -26.5507    1.0000 </r>
       <r>  -26.5052    1.0000 </r>
       <r>  -13.5574    1.0000 </r>
       <r>  -13.0261    1.0000 </r>
       <r>  -12.9436    1.0000 </r>
       <r>  -12.5931    1.0000 </r>
       <r>  -12.3815    1.0000 </r>
       <r>  -12.3802    1.0000 </r>
       <r>  -12.2619    1.0000 </r>
       <r>  -12.2367    1.0000 </r>
       <r>  -12.0115    1.0000 </r>
       <r>  -10.9943    1.0000 </r>
       <r>  -10.8965    1.0000 </r>
       <r>  -10.8667    1.0000 </r>
       <r>  -10.8059    1.0000 </r>
       <r>  -10.7867    1.0000 </r>
       <r>  -10.7155    1.0000 </r>
       <r>  -10.6920    1.0000 </r>
       <r>  -10.5186    1.0000 </r>
       <r>  -10.4918    1.0000 </r>
       <r>   -0.5578    1.0000 </r>
       <r>   -0.4286    1.0000 </r>
       <r>   -0.3243    1.0000 </r>
       <r>    0.8523    1.0000 </r>
       <r>    0.8759    1.0000 </r>
       <r>    1.0906    1.0000 </r>
       <r>    1.1519    1.0000 </r>
       <r>    1.1551    1.0000 </r>
       <r>    1.2665    1.0000 </r>
       <r>    1.3780    1.0000 </r>
       <r>    1.4814    1.0000 </r>
       <r>    1.8386    1.0000 </r>
       <r>    1.8558    1.0000 </r>
       <r>    2.0902    1.0000 </r>
       <r>    2.1616    1.0000 </r>
       <r>    2.2604    1.0000 </r>
       <r>    2.3508    1.0000 </r>
       <r>    2.3704    1.0000 </r>
       <r>    2.8785    1.0000 </r>
       <r>    2.9282    1.0000 </r>
       <r>    2.9389    1.0000 </r>
       <r>    3.0762    1.0000 </r>
       <r>    3.1129    1.0000 </r>
       <r>    3.1695    1.0000 </r>
       <r>    3.2014    1.0000 </r>
       <r>    3.4227    1.0000 </r>
       <r>    3.8986    1.0000 </r>
       <r>    6.5851    0.9192 </r>
       <r>    6.7152    0.3194 </r>
       <r>    6.7437    0.0343 </r>
       <r>    6.8629    0.0000 </r>
       <r>    7.0086    0.0000 </r>
       <r>    7.0267    0.0000 </r>
       <r>    8.1682    0.0000 </r>
       <r>    8.1690    0.0000 </r>
       <r>    8.7314    0.0000 </r>
       <r>    8.9335    0.0000 </r>
       <r>    9.2403    0.0000 </r>
       <r>    9.6424    0.0000 </r>
      </set>
      <set comment="kpoint 8">
       <r>  -51.8817    1.0000 </r>
       <r>  -51.8804    1.0000 </r>
       <r>  -50.3451    1.0000 </r>
       <r>  -29.0371    1.0000 </r>
       <r>  -28.8927    1.0000 </r>
       <r>  -28.8690    1.0000 </r>
       <r>  -28.1906    1.0000 </r>
       <r>  -28.1827    1.0000 </r>
       <r>  -28.1586    1.0000 </r>
       <r>  -28.1545    1.0000 </r>
       <r>  -28.1045    1.0000 </r>
       <r>  -28.1029    1.0000 </r>
       <r>  -26.5588    1.0000 </r>
       <r>  -26.5503    1.0000 </r>
       <r>  -26.5247    1.0000 </r>
       <r>  -13.4424    1.0000 </r>
       <r>  -13.1086    1.0000 </r>
       <r>  -12.7955    1.0000 </r>
       <r>  -12.5957    1.0000 </r>
       <r>  -12.5853    1.0000 </r>
       <r>  -12.3137    1.0000 </r>
       <r>  -12.2690    1.0000 </r>
       <r>  -11.9858    1.0000 </r>
       <r>  -11.9819    1.0000 </r>
       <r>  -10.9891    1.0000 </r>
       <r>  -10.9526    1.0000 </r>
       <r>  -10.9254    1.0000 </r>
       <r>  -10.8365    1.0000 </r>
       <r>  -10.8245    1.0000 </r>
       <r>  -10.7085    1.0000 </r>
       <r>  -10.5961    1.0000 </r>
       <r>  -10.5449    1.0000 </r>
       <r>  -10.5411    1.0000 </r>
       <r>   -0.2756    1.0000 </r>
       <r>   -0.1302    1.0000 </r>
       <r>    0.0801    1.0000 </r>
       <r>    0.1245    1.0000 </r>
       <r>    0.5189    1.0000 </r>
       <r>    0.6672    1.0000 </r>
       <r>    0.8498    1.0000 </r>
       <r>    0.9680    1.0000 </r>
       <r>    1.1538    1.0000 </r>
       <r>    1.3420    1.0000 </r>
       <r>    1.4151    1.0000 </r>
       <r>    1.4234    1.0000 </r>
       <r>    1.5244    1.0000 </r>
       <r>    1.9669    1.0000 </r>
       <r>    2.0079    1.0000 </r>
       <r>    2.3308    1.0000 </r>
       <r>    2.6551    1.0000 </r>
       <r>    2.7472    1.0000 </r>
       <r>    2.8096    1.0000 </r>
       <r>    2.8152    1.0000 </r>
       <r>    2.8886    1.0000 </r>
       <r>    3.0476    1.0000 </r>
       <r>    3.3244    1.0000 </r>
       <r>    3.4860    1.0000 </r>
       <r>    3.4903    1.0000 </r>
       <r>    3.5457    1.0000 </r>
       <r>    3.6724    1.0000 </r>
       <r>    6.1464    1.0612 </r>
       <r>    6.3888    0.7354 </r>
       <r>    6.3977    0.6748 </r>
       <r>    7.7558    0.0000 </r>
       <r>    7.7636    0.0000 </r>
       <r>    7.8374    0.0000 </r>
       <r>    7.8425    0.0000 </r>
       <r>    8.1431    0.0000 </r>
       <r>    8.2909    0.0000 </r>
       <r>    8.8346    0.0000 </r>
       <r>    9.1095    0.0000 </r>
       <r>    9.5232    0.0000 </r>
      </set>
      <set comment="kpoint 9">
       <r>  -51.8815    1.0000 </r>
       <r>  -51.8806    1.0000 </r>
       <r>  -50.3451    1.0000 </r>
       <r>  -29.0380    1.0000 </r>
       <r>  -28.8915    1.0000 </r>
       <r>  -28.8747    1.0000 </r>
       <r>  -28.1867    1.0000 </r>
       <r>  -28.1828    1.0000 </r>
       <r>  -28.1564    1.0000 </r>
       <r>  -28.1549    1.0000 </r>
       <r>  -28.1044    1.0000 </r>
       <r>  -28.1033    1.0000 </r>
       <r>  -26.5566    1.0000 </r>
       <r>  -26.5501    1.0000 </r>
       <r>  -26.5248    1.0000 </r>
       <r>  -13.5295    1.0000 </r>
       <r>  -13.1057    1.0000 </r>
       <r>  -13.0253    1.0000 </r>
       <r>  -12.7043    1.0000 </r>
       <r>  -12.4476    1.0000 </r>
       <r>  -12.1884    1.0000 </r>
       <r>  -12.1445    1.0000 </r>
       <r>  -12.0136    1.0000 </r>
       <r>  -11.9987    1.0000 </r>
       <r>  -10.9962    1.0000 </r>
       <r>  -10.9204    1.0000 </r>
       <r>  -10.8849    1.0000 </r>
       <r>  -10.8530    1.0000 </r>
       <r>  -10.7717    1.0000 </r>
       <r>  -10.7175    1.0000 </r>
       <r>  -10.6455    1.0000 </r>
       <r>  -10.4996    1.0000 </r>
       <r>  -10.4423    1.0000 </r>
       <r>   -0.4620    1.0000 </r>
       <r>   -0.1811    1.0000 </r>
       <r>    0.0458    1.0000 </r>
       <r>    0.5677    1.0000 </r>
       <r>    0.7280    1.0000 </r>
       <r>    0.8256    1.0000 </r>
       <r>    0.9969    1.0000 </r>
       <r>    1.0167    1.0000 </r>
       <r>    1.1801    1.0000 </r>
       <r>    1.2529    1.0000 </r>
       <r>    1.3660    1.0000 </r>
       <r>    1.4020    1.0000 </r>
       <r>    1.4435    1.0000 </r>
       <r>    2.0764    1.0000 </r>
       <r>    2.0938    1.0000 </r>
       <r>    2.2239    1.0000 </r>
       <r>    2.3175    1.0000 </r>
       <r>    2.4085    1.0000 </r>
       <r>    2.6977    1.0000 </r>
       <r>    2.7741    1.0000 </r>
       <r>    2.9347    1.0000 </r>
       <r>    2.9417    1.0000 </r>
       <r>    3.0540    1.0000 </r>
       <r>    3.0981    1.0000 </r>
       <r>    3.2691    1.0000 </r>
       <r>    3.3526    1.0000 </r>
       <r>    3.3811    1.0000 </r>
       <r>    6.5382    0.8110 </r>
       <r>    6.8025    0.0397 </r>
       <r>    6.8240    0.0277 </r>
       <r>    7.0126    0.0000 </r>
       <r>    7.4187    0.0000 </r>
       <r>    8.0677    0.0000 </r>
       <r>    8.0755    0.0000 </r>
       <r>    8.2049    0.0000 </r>
       <r>    8.3957    0.0000 </r>
       <r>    9.1864    0.0000 </r>
       <r>    9.4175    0.0000 </r>
       <r>    9.7275    0.0000 </r>
      </set>
      <set comment="kpoint 10">
       <r>  -51.8811    1.0000 </r>
       <r>  -51.8811    1.0000 </r>
       <r>  -50.3451    1.0000 </r>
       <r>  -29.0391    1.0000 </r>
       <r>  -28.8857    1.0000 </r>
       <r>  -28.8848    1.0000 </r>
       <r>  -28.1827    1.0000 </r>
       <r>  -28.1820    1.0000 </r>
       <r>  -28.1556    1.0000 </r>
       <r>  -28.1550    1.0000 </r>
       <r>  -28.1041    1.0000 </r>
       <r>  -28.1040    1.0000 </r>
       <r>  -26.5543    1.0000 </r>
       <r>  -26.5500    1.0000 </r>
       <r>  -26.5250    1.0000 </r>
       <r>  -13.6139    1.0000 </r>
       <r>  -13.2404    1.0000 </r>
       <r>  -13.0105    1.0000 </r>
       <r>  -12.7430    1.0000 </r>
       <r>  -12.4014    1.0000 </r>
       <r>  -12.1790    1.0000 </r>
       <r>  -12.0337    1.0000 </r>
       <r>  -12.0286    1.0000 </r>
       <r>  -11.9763    1.0000 </r>
       <r>  -10.9648    1.0000 </r>
       <r>  -10.9327    1.0000 </r>
       <r>  -10.8759    1.0000 </r>
       <r>  -10.8095    1.0000 </r>
       <r>  -10.7637    1.0000 </r>
       <r>  -10.7487    1.0000 </r>
       <r>  -10.6598    1.0000 </r>
       <r>  -10.4323    1.0000 </r>
       <r>  -10.3671    1.0000 </r>
       <r>   -0.4753    1.0000 </r>
       <r>   -0.0561    1.0000 </r>
       <r>    0.3328    1.0000 </r>
       <r>    0.6077    1.0000 </r>
       <r>    0.7086    1.0000 </r>
       <r>    0.8551    1.0000 </r>
       <r>    1.0513    1.0000 </r>
       <r>    1.1552    1.0000 </r>
       <r>    1.2055    1.0000 </r>
       <r>    1.2869    1.0000 </r>
       <r>    1.3740    1.0000 </r>
       <r>    1.3918    1.0000 </r>
       <r>    1.6035    1.0000 </r>
       <r>    1.6165    1.0000 </r>
       <r>    1.7318    1.0000 </r>
       <r>    1.9409    1.0000 </r>
       <r>    2.1747    1.0000 </r>
       <r>    2.3527    1.0000 </r>
       <r>    2.4430    1.0000 </r>
       <r>    2.7153    1.0000 </r>
       <r>    2.7758    1.0000 </r>
       <r>    3.0164    1.0000 </r>
       <r>    3.0556    1.0000 </r>
       <r>    3.0809    1.0000 </r>
       <r>    3.1432    1.0000 </r>
       <r>    3.1992    1.0000 </r>
       <r>    3.2307    1.0000 </r>
       <r>    6.5564    0.6931 </r>
       <r>    6.8903   -0.0566 </r>
       <r>    7.0192    0.0000 </r>
       <r>    7.7347    0.0000 </r>
       <r>    7.7478    0.0000 </r>
       <r>    7.7497    0.0000 </r>
       <r>    7.8214    0.0000 </r>
       <r>    8.1706    0.0000 </r>
       <r>    8.2330    0.0000 </r>
       <r>    9.0432    0.0000 </r>
       <r>    9.3660    0.0000 </r>
       <r>   10.0508    0.0000 </r>
      </set>
      <set comment="kpoint 11">
       <r>  -51.8811    1.0000 </r>
       <r>  -51.8811    1.0000 </r>
       <r>  -50.3451    1.0000 </r>
       <r>  -29.0391    1.0000 </r>
       <r>  -28.8857    1.0000 </r>
       <r>  -28.8848    1.0000 </r>
       <r>  -28.1828    1.0000 </r>
       <r>  -28.1819    1.0000 </r>
       <r>  -28.1558    1.0000 </r>
       <r>  -28.1548    1.0000 </r>
       <r>  -28.1041    1.0000 </r>
       <r>  -28.1040    1.0000 </r>
       <r>  -26.5543    1.0000 </r>
       <r>  -26.5500    1.0000 </r>
       <r>  -26.5250    1.0000 </r>
       <r>  -13.6123    1.0000 </r>
       <r>  -13.2516    1.0000 </r>
       <r>  -12.9980    1.0000 </r>
       <r>  -12.7295    1.0000 </r>
       <r>  -12.4479    1.0000 </r>
       <r>  -12.0922    1.0000 </r>
       <r>  -12.0917    1.0000 </r>
       <r>  -12.0204    1.0000 </r>
       <r>  -11.9833    1.0000 </r>
       <r>  -10.9704    1.0000 </r>
       <r>  -10.9179    1.0000 </r>
       <r>  -10.8845    1.0000 </r>
       <r>  -10.7973    1.0000 </r>
       <r>  -10.7740    1.0000 </r>
       <r>  -10.7581    1.0000 </r>
       <r>  -10.6561    1.0000 </r>
       <r>  -10.4154    1.0000 </r>
       <r>  -10.3810    1.0000 </r>
       <r>   -0.4617    1.0000 </r>
       <r>   -0.0942    1.0000 </r>
       <r>    0.3145    1.0000 </r>
       <r>    0.6538    1.0000 </r>
       <r>    0.7643    1.0000 </r>
       <r>    0.9302    1.0000 </r>
       <r>    1.0157    1.0000 </r>
       <r>    1.1555    1.0000 </r>
       <r>    1.1784    1.0000 </r>
       <r>    1.1938    1.0000 </r>
       <r>    1.4014    1.0000 </r>
       <r>    1.4017    1.0000 </r>
       <r>    1.4485    1.0000 </r>
       <r>    1.6363    1.0000 </r>
       <r>    1.7205    1.0000 </r>
       <r>    2.0705    1.0000 </r>
       <r>    2.3032    1.0000 </r>
       <r>    2.3247    1.0000 </r>
       <r>    2.5288    1.0000 </r>
       <r>    2.5622    1.0000 </r>
       <r>    2.7365    1.0000 </r>
       <r>    2.8893    1.0000 </r>
       <r>    3.0828    1.0000 </r>
       <r>    3.0978    1.0000 </r>
       <r>    3.1564    1.0000 </r>
       <r>    3.2402    1.0000 </r>
       <r>    3.2693    1.0000 </r>
       <r>    6.6368    0.5829 </r>
       <r>    6.6887    0.0592 </r>
       <r>    7.2981    0.0000 </r>
       <r>    7.4018    0.0000 </r>
       <r>    7.6447    0.0000 </r>
       <r>    7.9393    0.0000 </r>
       <r>    8.0473    0.0000 </r>
       <r>    8.0597    0.0000 </r>
       <r>    8.2038    0.0000 </r>
       <r>    9.1505    0.0000 </r>
       <r>    9.2302    0.0000 </r>
       <r>   10.0724    0.0000 </r>
      </set>
      <set comment="kpoint 12">
       <r>  -51.8815    1.0000 </r>
       <r>  -51.8806    1.0000 </r>
       <r>  -50.3451    1.0000 </r>
       <r>  -29.0382    1.0000 </r>
       <r>  -28.8922    1.0000 </r>
       <r>  -28.8737    1.0000 </r>
       <r>  -28.1864    1.0000 </r>
       <r>  -28.1839    1.0000 </r>
       <r>  -28.1568    1.0000 </r>
       <r>  -28.1539    1.0000 </r>
       <r>  -28.1045    1.0000 </r>
       <r>  -28.1033    1.0000 </r>
       <r>  -26.5566    1.0000 </r>
       <r>  -26.5501    1.0000 </r>
       <r>  -26.5248    1.0000 </r>
       <r>  -13.5408    1.0000 </r>
       <r>  -13.1657    1.0000 </r>
       <r>  -12.9644    1.0000 </r>
       <r>  -12.6141    1.0000 </r>
       <r>  -12.4293    1.0000 </r>
       <r>  -12.2594    1.0000 </r>
       <r>  -12.1572    1.0000 </r>
       <r>  -12.0472    1.0000 </r>
       <r>  -12.0093    1.0000 </r>
       <r>  -10.9804    1.0000 </r>
       <r>  -10.9247    1.0000 </r>
       <r>  -10.8669    1.0000 </r>
       <r>  -10.8410    1.0000 </r>
       <r>  -10.7915    1.0000 </r>
       <r>  -10.6881    1.0000 </r>
       <r>  -10.6428    1.0000 </r>
       <r>  -10.5036    1.0000 </r>
       <r>  -10.4623    1.0000 </r>
       <r>   -0.3352    1.0000 </r>
       <r>   -0.1904    1.0000 </r>
       <r>   -0.0555    1.0000 </r>
       <r>    0.4718    1.0000 </r>
       <r>    0.6468    1.0000 </r>
       <r>    0.8654    1.0000 </r>
       <r>    0.8971    1.0000 </r>
       <r>    1.1224    1.0000 </r>
       <r>    1.2654    1.0000 </r>
       <r>    1.3818    1.0000 </r>
       <r>    1.3969    1.0000 </r>
       <r>    1.5015    1.0000 </r>
       <r>    1.6407    1.0000 </r>
       <r>    1.8347    1.0000 </r>
       <r>    2.0173    1.0000 </r>
       <r>    2.1769    1.0000 </r>
       <r>    2.3083    1.0000 </r>
       <r>    2.3533    1.0000 </r>
       <r>    2.4735    1.0000 </r>
       <r>    2.6928    1.0000 </r>
       <r>    2.9016    1.0000 </r>
       <r>    2.9337    1.0000 </r>
       <r>    2.9771    1.0000 </r>
       <r>    3.1935    1.0000 </r>
       <r>    3.3026    1.0000 </r>
       <r>    3.3454    1.0000 </r>
       <r>    3.6435    1.0000 </r>
       <r>    6.4671    0.8073 </r>
       <r>    6.6315    0.2249 </r>
       <r>    7.2197   -0.0209 </r>
       <r>    7.2794    0.0000 </r>
       <r>    7.7172    0.0000 </r>
       <r>    7.7275    0.0000 </r>
       <r>    7.8162    0.0000 </r>
       <r>    8.1085    0.0000 </r>
       <r>    8.4562    0.0000 </r>
       <r>    9.0358    0.0000 </r>
       <r>    9.2079    0.0000 </r>
       <r>    9.9383    0.0000 </r>
      </set>
      <set comment="kpoint 13">
       <r>  -51.8817    1.0000 </r>
       <r>  -51.8804    1.0000 </r>
       <r>  -50.3451    1.0000 </r>
       <r>  -29.0372    1.0000 </r>
       <r>  -28.8933    1.0000 </r>
       <r>  -28.8682    1.0000 </r>
       <r>  -28.1908    1.0000 </r>
       <r>  -28.1841    1.0000 </r>
       <r>  -28.1584    1.0000 </r>
       <r>  -28.1533    1.0000 </r>
       <r>  -28.1046    1.0000 </r>
       <r>  -28.1029    1.0000 </r>
       <r>  -26.5588    1.0000 </r>
       <r>  -26.5502    1.0000 </r>
       <r>  -26.5247    1.0000 </r>
       <r>  -13.4493    1.0000 </r>
       <r>  -13.0746    1.0000 </r>
       <r>  -12.8579    1.0000 </r>
       <r>  -12.5840    1.0000 </r>
       <r>  -12.4965    1.0000 </r>
       <r>  -12.3302    1.0000 </r>
       <r>  -12.2532    1.0000 </r>
       <r>  -12.0662    1.0000 </r>
       <r>  -12.0123    1.0000 </r>
       <r>  -10.9834    1.0000 </r>
       <r>  -10.9381    1.0000 </r>
       <r>  -10.8641    1.0000 </r>
       <r>  -10.8353    1.0000 </r>
       <r>  -10.8038    1.0000 </r>
       <r>  -10.7530    1.0000 </r>
       <r>  -10.5779    1.0000 </r>
       <r>  -10.5661    1.0000 </r>
       <r>  -10.5473    1.0000 </r>
       <r>   -0.3900    1.0000 </r>
       <r>   -0.2606    1.0000 </r>
       <r>   -0.2396    1.0000 </r>
       <r>    0.3427    1.0000 </r>
       <r>    0.8359    1.0000 </r>
       <r>    0.8593    1.0000 </r>
       <r>    0.9683    1.0000 </r>
       <r>    1.0828    1.0000 </r>
       <r>    1.1489    1.0000 </r>
       <r>    1.2452    1.0000 </r>
       <r>    1.3879    1.0000 </r>
       <r>    1.4023    1.0000 </r>
       <r>    1.6782    1.0000 </r>
       <r>    1.9932    1.0000 </r>
       <r>    2.0129    1.0000 </r>
       <r>    2.3034    1.0000 </r>
       <r>    2.5072    1.0000 </r>
       <r>    2.5500    1.0000 </r>
       <r>    2.7181    1.0000 </r>
       <r>    2.9167    1.0000 </r>
       <r>    2.9986    1.0000 </r>
       <r>    3.0686    1.0000 </r>
       <r>    3.1697    1.0000 </r>
       <r>    3.2778    1.0000 </r>
       <r>    3.4062    1.0000 </r>
       <r>    3.4094    1.0000 </r>
       <r>    3.8124    1.0000 </r>
       <r>    6.4273    0.9572 </r>
       <r>    6.5140    0.5537 </r>
       <r>    6.5377    0.2716 </r>
       <r>    7.2947    0.0000 </r>
       <r>    7.4055    0.0000 </r>
       <r>    7.6592    0.0000 </r>
       <r>    8.1071    0.0000 </r>
       <r>    8.1333    0.0000 </r>
       <r>    8.6184    0.0000 </r>
       <r>    9.1445    0.0000 </r>
       <r>    9.2012    0.0000 </r>
       <r>    9.6903    0.0000 </r>
      </set>
      <set comment="kpoint 14">
       <r>  -51.8817    1.0000 </r>
       <r>  -51.8804    1.0000 </r>
       <r>  -50.3451    1.0000 </r>
       <r>  -29.0373    1.0000 </r>
       <r>  -28.8938    1.0000 </r>
       <r>  -28.8674    1.0000 </r>
       <r>  -28.1911    1.0000 </r>
       <r>  -28.1854    1.0000 </r>
       <r>  -28.1581    1.0000 </r>
       <r>  -28.1522    1.0000 </r>
       <r>  -28.1046    1.0000 </r>
       <r>  -28.1028    1.0000 </r>
       <r>  -26.5589    1.0000 </r>
       <r>  -26.5502    1.0000 </r>
       <r>  -26.5247    1.0000 </r>
       <r>  -13.4559    1.0000 </r>
       <r>  -13.0094    1.0000 </r>
       <r>  -12.9416    1.0000 </r>
       <r>  -12.5828    1.0000 </r>
       <r>  -12.3437    1.0000 </r>
       <r>  -12.3418    1.0000 </r>
       <r>  -12.2425    1.0000 </r>
       <r>  -12.2086    1.0000 </r>
       <r>  -12.0423    1.0000 </r>
       <r>  -10.9767    1.0000 </r>
       <r>  -10.9181    1.0000 </r>
       <r>  -10.8351    1.0000 </r>
       <r>  -10.8311    1.0000 </r>
       <r>  -10.7937    1.0000 </r>
       <r>  -10.6948    1.0000 </r>
       <r>  -10.6728    1.0000 </r>
       <r>  -10.5535    1.0000 </r>
       <r>  -10.5455    1.0000 </r>
       <r>   -0.4719    1.0000 </r>
       <r>   -0.4278    1.0000 </r>
       <r>   -0.3223    1.0000 </r>
       <r>    0.6285    1.0000 </r>
       <r>    0.7962    1.0000 </r>
       <r>    0.8635    1.0000 </r>
       <r>    1.0392    1.0000 </r>
       <r>    1.1569    1.0000 </r>
       <r>    1.1886    1.0000 </r>
       <r>    1.2943    1.0000 </r>
       <r>    1.4012    1.0000 </r>
       <r>    1.8245    1.0000 </r>
       <r>    1.8664    1.0000 </r>
       <r>    1.9286    1.0000 </r>
       <r>    2.0018    1.0000 </r>
       <r>    2.1300    1.0000 </r>
       <r>    2.2433    1.0000 </r>
       <r>    2.4649    1.0000 </r>
       <r>    2.6250    1.0000 </r>
       <r>    2.8322    1.0000 </r>
       <r>    3.0186    1.0000 </r>
       <r>    3.1272    1.0000 </r>
       <r>    3.1569    1.0000 </r>
       <r>    3.1576    1.0000 </r>
       <r>    3.2280    1.0000 </r>
       <r>    3.3275    1.0000 </r>
       <r>    3.9052    1.0000 </r>
       <r>    6.7579    0.3655 </r>
       <r>    6.8526   -0.0578 </r>
       <r>    6.8922   -0.0017 </r>
       <r>    6.9883    0.0000 </r>
[...]
       <r>    3.9798    1.0000 </r>
       <r>    6.5917    0.2234 </r>
       <r>    7.8311    0.0000 </r>
       <r>    8.0560    0.0000 </r>
       <r>    8.0777    0.0000 </r>
       <r>    8.3249    0.0000 </r>
       <r>    8.3537    0.0000 </r>
       <r>    8.8131    0.0000 </r>
       <r>    8.9379    0.0000 </r>
       <r>    8.9508    0.0000 </r>
       <r>    9.1434    0.0000 </r>
       <r>   10.8580    0.0000 </r>
       <r>   10.8729    0.0000 </r>
      </set>
      <set comment="kpoint 35">
       <r>  -51.8808    1.0000 </r>
       <r>  -51.8794    1.0000 </r>
       <r>  -50.3427    1.0000 </r>
       <r>  -29.0250    1.0000 </r>
       <r>  -28.8836    1.0000 </r>
       <r>  -28.8545    1.0000 </r>
       <r>  -28.1888    1.0000 </r>
       <r>  -28.1858    1.0000 </r>
       <r>  -28.1562    1.0000 </r>
       <r>  -28.1543    1.0000 </r>
       <r>  -28.1500    1.0000 </r>
       <r>  -28.1459    1.0000 </r>
       <r>  -26.6624    1.0000 </r>
       <r>  -26.5531    1.0000 </r>
       <r>  -26.5466    1.0000 </r>
       <r>  -13.2497    1.0000 </r>
       <r>  -13.0393    1.0000 </r>
       <r>  -12.5031    1.0000 </r>
       <r>  -12.3817    1.0000 </r>
       <r>  -12.0839    1.0000 </r>
       <r>  -11.9954    1.0000 </r>
       <r>  -11.9478    1.0000 </r>
       <r>  -11.9254    1.0000 </r>
       <r>  -11.8476    1.0000 </r>
       <r>  -11.1818    1.0000 </r>
       <r>  -11.1266    1.0000 </r>
       <r>  -11.1176    1.0000 </r>
       <r>  -10.9834    1.0000 </r>
       <r>  -10.8485    1.0000 </r>
       <r>  -10.6669    1.0000 </r>
       <r>  -10.6426    1.0000 </r>
       <r>  -10.6151    1.0000 </r>
       <r>  -10.4085    1.0000 </r>
       <r>   -1.3251    1.0000 </r>
       <r>   -0.3964    1.0000 </r>
       <r>   -0.3082    1.0000 </r>
       <r>   -0.2299    1.0000 </r>
       <r>   -0.0338    1.0000 </r>
       <r>    0.1375    1.0000 </r>
       <r>    0.3170    1.0000 </r>
       <r>    0.4107    1.0000 </r>
       <r>    0.7079    1.0000 </r>
       <r>    0.7948    1.0000 </r>
       <r>    1.0392    1.0000 </r>
       <r>    1.0524    1.0000 </r>
       <r>    1.1017    1.0000 </r>
       <r>    1.1793    1.0000 </r>
       <r>    1.2685    1.0000 </r>
       <r>    1.4002    1.0000 </r>
       <r>    2.1612    1.0000 </r>
       <r>    2.1652    1.0000 </r>
       <r>    2.7234    1.0000 </r>
       <r>    2.8581    1.0000 </r>
       <r>    2.8912    1.0000 </r>
       <r>    2.9583    1.0000 </r>
       <r>    2.9638    1.0000 </r>
       <r>    3.1625    1.0000 </r>
       <r>    3.9577    1.0000 </r>
       <r>    3.9611    1.0000 </r>
       <r>    3.9949    1.0000 </r>
       <r>    7.1539   -0.0074 </r>
       <r>    7.2316    0.0000 </r>
       <r>    8.0722    0.0000 </r>
       <r>    8.1127    0.0000 </r>
       <r>    8.2297    0.0000 </r>
       <r>    8.2338    0.0000 </r>
       <r>    8.9701    0.0000 </r>
       <r>    9.0144    0.0000 </r>
       <r>    9.0280    0.0000 </r>
       <r>    9.6310    0.0000 </r>
       <r>   10.4001    0.0000 </r>
       <r>   10.6752    0.0000 </r>
      </set>
     </set>
    </set>
   </array>
  </eigenvalues>
  <separator name="orbital magnetization" >
   <v name="MAGDIPOLOUT">      0.00000000      0.00000000      0.00000000</v>
  </separator>
  <dos>
   <i name="efermi">      6.61272241 </i>
   <total>
    <array>
     <dimension dim="1">gridpoints</dimension>
     <dimension dim="2">spin</dimension>
     <field>energy</field>
     <field>total</field>
     <field>integrated</field>
     <set>
      <set comment="spin 1">
       <r>   -55.0333     0.0000     0.0000 </r>
       <r>   -54.8022     0.0000     0.0000 </r>
       <r>   -54.5711     0.0000     0.0000 </r>
       <r>   -54.3400     0.0000     0.0000 </r>
       <r>   -54.1089     0.0000     0.0000 </r>
       <r>   -53.8778     0.0000     0.0000 </r>
       <r>   -53.6467     0.0000     0.0000 </r>
       <r>   -53.4156     0.0000     0.0000 </r>
       <r>   -53.1845     0.0000     0.0000 </r>
       <r>   -52.9534     0.0000     0.0000 </r>
       <r>   -52.7223     0.0000     0.0000 </r>
       <r>   -52.4912     0.0000     0.0000 </r>
       <r>   -52.2600     0.0000     0.0000 </r>
       <r>   -52.0289     0.0000     0.0000 </r>
       <r>   -51.7978     0.0000     4.0000 </r>
       <r>   -51.5667     0.0000     4.0000 </r>
       <r>   -51.3356     0.0000     4.0000 </r>
       <r>   -51.1045     0.0000     4.0000 </r>
       <r>   -50.8734     0.0000     4.0000 </r>
       <r>   -50.6423     0.0000     4.0000 </r>
       <r>   -50.4112     0.0000     4.0000 </r>
       <r>   -50.1801     0.0000     6.0000 </r>
       <r>   -49.9490     0.0000     6.0000 </r>
       <r>   -49.7179     0.0000     6.0000 </r>
       <r>   -49.4868     0.0000     6.0000 </r>
       <r>   -49.2557     0.0000     6.0000 </r>
       <r>   -49.0245     0.0000     6.0000 </r>
       <r>   -48.7934     0.0000     6.0000 </r>
       <r>   -48.5623     0.0000     6.0000 </r>
       <r>   -48.3312     0.0000     6.0000 </r>
       <r>   -48.1001     0.0000     6.0000 </r>
       <r>   -47.8690     0.0000     6.0000 </r>
       <r>   -47.6379     0.0000     6.0000 </r>
       <r>   -47.4068     0.0000     6.0000 </r>
       <r>   -47.1757     0.0000     6.0000 </r>
       <r>   -46.9446     0.0000     6.0000 </r>
       <r>   -46.7135     0.0000     6.0000 </r>
       <r>   -46.4824     0.0000     6.0000 </r>
       <r>   -46.2513     0.0000     6.0000 </r>
       <r>   -46.0202     0.0000     6.0000 </r>
       <r>   -45.7890     0.0000     6.0000 </r>
       <r>   -45.5579     0.0000     6.0000 </r>
       <r>   -45.3268     0.0000     6.0000 </r>
       <r>   -45.0957     0.0000     6.0000 </r>
       <r>   -44.8646     0.0000     6.0000 </r>
       <r>   -44.6335     0.0000     6.0000 </r>
       <r>   -44.4024     0.0000     6.0000 </r>
       <r>   -44.1713     0.0000     6.0000 </r>
       <r>   -43.9402     0.0000     6.0000 </r>
       <r>   -43.7091     0.0000     6.0000 </r>
       <r>   -43.4780     0.0000     6.0000 </r>
       <r>   -43.2469     0.0000     6.0000 </r>
       <r>   -43.0158     0.0000     6.0000 </r>
       <r>   -42.7847     0.0000     6.0000 </r>
       <r>   -42.5535     0.0000     6.0000 </r>
       <r>   -42.3224     0.0000     6.0000 </r>
       <r>   -42.0913     0.0000     6.0000 </r>
       <r>   -41.8602     0.0000     6.0000 </r>
       <r>   -41.6291     0.0000     6.0000 </r>
       <r>   -41.3980     0.0000     6.0000 </r>
       <r>   -41.1669     0.0000     6.0000 </r>
       <r>   -40.9358     0.0000     6.0000 </r>
       <r>   -40.7047     0.0000     6.0000 </r>
       <r>   -40.4736     0.0000     6.0000 </r>
       <r>   -40.2425     0.0000     6.0000 </r>
       <r>   -40.0114     0.0000     6.0000 </r>
       <r>   -39.7803     0.0000     6.0000 </r>
       <r>   -39.5491     0.0000     6.0000 </r>
       <r>   -39.3180     0.0000     6.0000 </r>
       <r>   -39.0869     0.0000     6.0000 </r>
       <r>   -38.8558     0.0000     6.0000 </r>
       <r>   -38.6247     0.0000     6.0000 </r>
       <r>   -38.3936     0.0000     6.0000 </r>
       <r>   -38.1625     0.0000     6.0000 </r>
       <r>   -37.9314     0.0000     6.0000 </r>
       <r>   -37.7003     0.0000     6.0000 </r>
       <r>   -37.4692     0.0000     6.0000 </r>
       <r>   -37.2381     0.0000     6.0000 </r>
       <r>   -37.0070     0.0000     6.0000 </r>
       <r>   -36.7759     0.0000     6.0000 </r>
       <r>   -36.5448     0.0000     6.0000 </r>
       <r>   -36.3136     0.0000     6.0000 </r>
       <r>   -36.0825     0.0000     6.0000 </r>
       <r>   -35.8514     0.0000     6.0000 </r>
       <r>   -35.6203     0.0000     6.0000 </r>
       <r>   -35.3892     0.0000     6.0000 </r>
       <r>   -35.1581     0.0000     6.0000 </r>
       <r>   -34.9270     0.0000     6.0000 </r>
       <r>   -34.6959     0.0000     6.0000 </r>
       <r>   -34.4648     0.0000     6.0000 </r>
       <r>   -34.2337     0.0000     6.0000 </r>
       <r>   -34.0026     0.0000     6.0000 </r>
       <r>   -33.7715     0.0000     6.0000 </r>
       <r>   -33.5404     0.0000     6.0000 </r>
       <r>   -33.3093     0.0000     6.0000 </r>
       <r>   -33.0781     0.0000     6.0000 </r>
       <r>   -32.8470     0.0000     6.0000 </r>
       <r>   -32.6159     0.0000     6.0000 </r>
       <r>   -32.3848     0.0000     6.0000 </r>
       <r>   -32.1537     0.0000     6.0000 </r>
       <r>   -31.9226     0.0000     6.0000 </r>
       <r>   -31.6915     0.0000     6.0000 </r>
       <r>   -31.4604     0.0000     6.0000 </r>
       <r>   -31.2293     0.0000     6.0000 </r>
       <r>   -30.9982     0.0000     6.0000 </r>
       <r>   -30.7671     0.0000     6.0000 </r>
       <r>   -30.5360     0.0000     6.0000 </r>
       <r>   -30.3049     0.0000     6.0000 </r>
       <r>   -30.0738     0.0000     6.0000 </r>
       <r>   -29.8426     0.0000     6.0000 </r>
       <r>   -29.6115     0.0000     6.0000 </r>
       <r>   -29.3804     0.0000     6.0000 </r>
       <r>   -29.1493     0.0000     6.0000 </r>
       <r>   -28.9182     0.0000     8.0000 </r>
       <r>   -28.6871     0.0000    12.0000 </r>
       <r>   -28.4560     0.0000    12.0000 </r>
       <r>   -28.2249     0.0000    12.0000 </r>
       <r>   -27.9938     0.0000    24.0000 </r>
       <r>   -27.7627     0.0000    24.0000 </r>
       <r>   -27.5316     0.0000    24.0000 </r>
       <r>   -27.3005     0.0000    24.0000 </r>
       <r>   -27.0694     0.0000    24.0000 </r>
       <r>   -26.8383     0.0000    24.0000 </r>
       <r>   -26.6071     8.1130    24.8425 </r>
       <r>   -26.3760     0.0000    30.0000 </r>
       <r>   -26.1449     0.0000    30.0000 </r>
       <r>   -25.9138     0.0000    30.0000 </r>
       <r>   -25.6827     0.0000    30.0000 </r>
       <r>   -25.4516     0.0000    30.0000 </r>
       <r>   -25.2205     0.0000    30.0000 </r>
       <r>   -24.9894     0.0000    30.0000 </r>
       <r>   -24.7583     0.0000    30.0000 </r>
       <r>   -24.5272     0.0000    30.0000 </r>
       <r>   -24.2961     0.0000    30.0000 </r>
       <r>   -24.0650     0.0000    30.0000 </r>
       <r>   -23.8339     0.0000    30.0000 </r>
       <r>   -23.6027     0.0000    30.0000 </r>
       <r>   -23.3716     0.0000    30.0000 </r>
       <r>   -23.1405     0.0000    30.0000 </r>
       <r>   -22.9094     0.0000    30.0000 </r>
       <r>   -22.6783     0.0000    30.0000 </r>
       <r>   -22.4472     0.0000    30.0000 </r>
       <r>   -22.2161     0.0000    30.0000 </r>
       <r>   -21.9850     0.0000    30.0000 </r>
       <r>   -21.7539     0.0000    30.0000 </r>
       <r>   -21.5228     0.0000    30.0000 </r>
       <r>   -21.2917     0.0000    30.0000 </r>
       <r>   -21.0606     0.0000    30.0000 </r>
       <r>   -20.8295     0.0000    30.0000 </r>
       <r>   -20.5984     0.0000    30.0000 </r>
       <r>   -20.3672     0.0000    30.0000 </r>
       <r>   -20.1361     0.0000    30.0000 </r>
       <r>   -19.9050     0.0000    30.0000 </r>
       <r>   -19.6739     0.0000    30.0000 </r>
       <r>   -19.4428     0.0000    30.0000 </r>
       <r>   -19.2117     0.0000    30.0000 </r>
       <r>   -18.9806     0.0000    30.0000 </r>
       <r>   -18.7495     0.0000    30.0000 </r>
       <r>   -18.5184     0.0000    30.0000 </r>
       <r>   -18.2873     0.0000    30.0000 </r>
       <r>   -18.0562     0.0000    30.0000 </r>
       <r>   -17.8251     0.0000    30.0000 </r>
       <r>   -17.5940     0.0000    30.0000 </r>
       <r>   -17.3629     0.0000    30.0000 </r>
       <r>   -17.1317     0.0000    30.0000 </r>
       <r>   -16.9006     0.0000    30.0000 </r>
       <r>   -16.6695     0.0000    30.0000 </r>
       <r>   -16.4384     0.0000    30.0000 </r>
       <r>   -16.2073     0.0000    30.0000 </r>
       <r>   -15.9762     0.0000    30.0000 </r>
       <r>   -15.7451     0.0000    30.0000 </r>
       <r>   -15.5140     0.0000    30.0000 </r>
       <r>   -15.2829     0.0000    30.0000 </r>
       <r>   -15.0518     0.0000    30.0000 </r>
       <r>   -14.8207     0.0000    30.0000 </r>
       <r>   -14.5896     0.0000    30.0000 </r>
       <r>   -14.3585     0.0000    30.0000 </r>
       <r>   -14.1274     0.0000    30.0000 </r>
       <r>   -13.8962     0.0000    30.0000 </r>
       <r>   -13.6651     1.4382    30.0390 </r>
       <r>   -13.4340     2.0502    30.6268 </r>
       <r>   -13.2029     6.2553    31.6868 </r>
       <r>   -12.9718     9.2453    33.4987 </r>
       <r>   -12.7407     7.9239    35.1741 </r>
       <r>   -12.5096    12.6032    37.4631 </r>
       <r>   -12.2785    11.2254    39.9755 </r>
       <r>   -12.0474    27.9263    44.7849 </r>
       <r>   -11.8163     0.0000    48.0000 </r>
       <r>   -11.5852     0.0000    48.0000 </r>
       <r>   -11.3541     0.0000    48.0000 </r>
       <r>   -11.1230     2.5199    48.0924 </r>
       <r>   -10.8919    35.7931    52.8218 </r>
       <r>   -10.6607    27.5292    59.9088 </r>
       <r>   -10.4296    46.9973    65.3395 </r>
       <r>   -10.1985     0.0000    66.0000 </r>
       <r>    -9.9674     0.0000    66.0000 </r>
       <r>    -9.7363     0.0000    66.0000 </r>
       <r>    -9.5052     0.0000    66.0000 </r>
       <r>    -9.2741     0.0000    66.0000 </r>
       <r>    -9.0430     0.0000    66.0000 </r>
       <r>    -8.8119     0.0000    66.0000 </r>
       <r>    -8.5808     0.0000    66.0000 </r>
       <r>    -8.3497     0.0000    66.0000 </r>
       <r>    -8.1186     0.0000    66.0000 </r>
       <r>    -7.8875     0.0000    66.0000 </r>
       <r>    -7.6564     0.0000    66.0000 </r>
       <r>    -7.4252     0.0000    66.0000 </r>
       <r>    -7.1941     0.0000    66.0000 </r>
       <r>    -6.9630     0.0000    66.0000 </r>
       <r>    -6.7319     0.0000    66.0000 </r>
       <r>    -6.5008     0.0000    66.0000 </r>
       <r>    -6.2697     0.0000    66.0000 </r>
       <r>    -6.0386     0.0000    66.0000 </r>
       <r>    -5.8075     0.0000    66.0000 </r>
       <r>    -5.5764     0.0000    66.0000 </r>
       <r>    -5.3453     0.0000    66.0000 </r>
       <r>    -5.1142     0.0000    66.0000 </r>
       <r>    -4.8831     0.0000    66.0000 </r>
       <r>    -4.6520     0.0000    66.0000 </r>
       <r>    -4.4208     0.0000    66.0000 </r>
       <r>    -4.1897     0.0000    66.0000 </r>
       <r>    -3.9586     0.0000    66.0000 </r>
       <r>    -3.7275     0.0000    66.0000 </r>
       <r>    -3.4964     0.0000    66.0000 </r>
       <r>    -3.2653     0.0000    66.0000 </r>
       <r>    -3.0342     0.0000    66.0000 </r>
       <r>    -2.8031     0.0000    66.0000 </r>
       <r>    -2.5720     0.0000    66.0000 </r>
       <r>    -2.3409     0.0000    66.0000 </r>
       <r>    -2.1098     0.0000    66.0000 </r>
       <r>    -1.8787     0.0000    66.0000 </r>
       <r>    -1.6476     0.0000    66.0000 </r>
       <r>    -1.4165     0.0000    66.0000 </r>
       <r>    -1.1853     0.7267    66.3220 </r>
       <r>    -0.9542     0.7266    66.4900 </r>
       <r>    -0.7231     0.7855    66.6584 </r>
       <r>    -0.4920     6.0781    67.3545 </r>
       <r>    -0.2609    10.5285    70.0227 </r>
       <r>    -0.0298    12.5087    72.6744 </r>
       <r>     0.2013     5.9870    74.1143 </r>
       <r>     0.4324    10.9696    76.4531 </r>
       <r>     0.6635    14.0122    78.9092 </r>
       <r>     0.8946    14.5283    82.2092 </r>
       <r>     1.1257    16.2654    85.9274 </r>
       <r>     1.3568    20.0676    90.3309 </r>
       <r>     1.5879     9.0861    94.2305 </r>
       <r>     1.8190     8.1839    96.1279 </r>
       <r>     2.0502     8.0480    98.0720 </r>
       <r>     2.2813    12.1994    99.9665 </r>
       <r>     2.5124    11.4190   102.1846 </r>
       <r>     2.7435    13.9666   105.1686 </r>
       <r>     2.9746    16.1345   108.8712 </r>
       <r>     3.2057    15.8373   112.6046 </r>
       <r>     3.4368    13.0094   116.2647 </r>
       <r>     3.6679     5.7296   117.9900 </r>
       <r>     3.8990     3.8198   119.6185 </r>
       <r>     4.1301     0.0000   120.0000 </r>
       <r>     4.3612     0.0000   120.0000 </r>
       <r>     4.5923     0.0000   120.0000 </r>
       <r>     4.8234     0.0000   120.0000 </r>
       <r>     5.0545     0.0000   120.0000 </r>
       <r>     5.2857     0.0000   120.0000 </r>
       <r>     5.5168     0.0000   120.0000 </r>
       <r>     5.7479     0.0000   120.0000 </r>
       <r>     5.9790     0.0000   120.0000 </r>
       <r>     6.2101     0.3289   120.0130 </r>
       <r>     6.4412     3.0138   120.4110 </r>
       <r>     6.6723     3.7611   121.2194 </r>
       <r>     6.9034     3.6150   122.0358 </r>
       <r>     7.1345     5.2432   123.0353 </r>
       <r>     7.3656     5.4888   124.3185 </r>
       <r>     7.5967     6.7451   125.7635 </r>
       <r>     7.8278    10.5335   127.8217 </r>
       <r>     8.0589    16.2872   130.4888 </r>
       <r>     8.2900    10.7940   133.6741 </r>
       <r>     8.5212     7.5471   135.8155 </r>
       <r>     8.7523     4.9402   137.1217 </r>
       <r>     8.9834     2.8179   138.2821 </r>
       <r>     9.2145     4.0197   139.0767 </r>
       <r>     9.4456     4.7306   139.9692 </r>
       <r>     9.6767     3.0691   140.8841 </r>
       <r>     9.9078     2.4186   141.4748 </r>
       <r>    10.1389     2.5093   142.1119 </r>
       <r>    10.3700     1.7407   142.6015 </r>
       <r>    10.6011     1.4001   142.9684 </r>
       <r>    10.8322     1.7700   143.3101 </r>
       <r>    11.0633     1.4101   143.9518 </r>
       <r>    11.2944     0.0000   144.0000 </r>
       <r>    11.5255     0.0000   144.0000 </r>
       <r>    11.7567     0.0000   144.0000 </r>
       <r>    11.9878     0.0000   144.0000 </r>
       <r>    12.2189     0.0000   144.0000 </r>
       <r>    12.4500     0.0000   144.0000 </r>
       <r>    12.6811     0.0000   144.0000 </r>
       <r>    12.9122     0.0000   144.0000 </r>
       <r>    13.1433     0.0000   144.0000 </r>
       <r>    13.3744     0.0000   144.0000 </r>
       <r>    13.6055     0.0000   144.0000 </r>
       <r>    13.8366     0.0000   144.0000 </r>
       <r>    14.0677     0.0000   144.0000 </r>
       <r>    14.2988     0.0000   144.0000 </r>
      </set>
     </set>
    </array>
   </total>
  </dos>
 </calculation>
 <structure name="finalpos" >
  <crystal>
   <varray name="basis" >
    <v>       0.00000000       3.98162565      -7.96116599 </v>
    <v>       0.00000000      -7.96116599       3.98162565 </v>
    <v>      -3.98888579       0.00000000       0.00000000 </v>
   </varray>
   <i name="volume">    189.57906175 </i>
   <varray name="rec_basis" >
    <v>       0.00000000      -0.08377639      -0.16750891 </v>
    <v>       0.00000000      -0.16750891      -0.08377639 </v>
    <v>      -0.25069657       0.00000000       0.00000000 </v>
   </varray>
  </crystal>
  <varray name="positions" >
   <v>       0.16666667       0.83333333       0.50000000 </v>
   <v>       0.16666667       0.83333333       0.00000000 </v>
   <v>       0.99827982       0.49827207       0.50000000 </v>
   <v>       0.83160540       0.66494649       0.50000000 </v>
   <v>       0.83388112       0.16611888       0.00000000 </v>
   <v>       0.66666667       0.83333333       0.50000000 </v>
   <v>       0.50172793       0.00172018       0.50000000 </v>
   <v>       0.49945221       0.50054779       0.00000000 </v>
   <v>       0.33505351       0.16839460       0.50000000 </v>
   <v>       0.16666667       0.33333333       0.50000000 </v>
   <v>       0.66666667       0.33333333       0.00000000 </v>
   <v>       0.33923426       0.66076574       0.00000000 </v>
   <v>       0.99409908       0.00590092       0.00000000 </v>
   <v>       0.83476685       0.16523315       0.50000000 </v>
   <v>       0.49856649       0.50143351       0.50000000 </v>
  </varray>
 </structure>
</modeling>
