       N       E                     dE             d eps       ncg     rms          rms(c)
DAV:   1     0.448387143775E+03    0.44839E+03   -0.21576E+04  1680   0.180E+03
DAV:   2     0.139821981690E+00   -0.44825E+03   -0.44087E+03  1992   0.490E+02
DAV:   3    -0.484432614065E+02   -0.48583E+02   -0.48510E+02  2496   0.151E+02
DAV:   4    -0.504420805199E+02   -0.19988E+01   -0.19980E+01  2352   0.283E+01
DAV:   5    -0.505126504800E+02   -0.70570E-01   -0.70567E-01  2408   0.407E+00    0.257E+01
DAV:   6    -0.401720220497E+02    0.10341E+02   -0.68338E+01  2544   0.742E+01    0.156E+01
DAV:   7    -0.401849344623E+02   -0.12912E-01   -0.95951E+00  2072   0.239E+01    0.101E+01
DAV:   8    -0.402000725994E+02   -0.15138E-01   -0.21598E+00  2136   0.153E+01    0.305E+00
DAV:   9    -0.401093164756E+02    0.90756E-01   -0.52005E-01  2048   0.690E+00    0.978E-01
DAV:  10    -0.401128253681E+02   -0.35089E-02   -0.12613E-01  2272   0.258E+00    0.859E-01
DAV:  11    -0.401037802866E+02    0.90451E-02   -0.78789E-02  2424   0.228E+00    0.208E-01
DAV:  12    -0.401034857835E+02    0.29450E-03   -0.32667E-03  2008   0.604E-01    0.999E-02
DAV:  13    -0.401034022444E+02    0.83539E-04   -0.53601E-04  2632   0.221E-01    0.487E-02
DAV:  14    -0.401034120596E+02   -0.98152E-05   -0.11413E-04  2080   0.759E-02    0.176E-02
DAV:  15    -0.401034102327E+02    0.18269E-05   -0.23504E-05  1480   0.568E-02
   1 F= -.40103410E+02 E0= -.40103410E+02  d E =-.401034E+02
