       N       E                     dE             d eps       ncg     rms          rms(c)
DAV:   1    -0.812909857672E+02   -0.81291E+02   -0.13594E-01  4320   0.412E+00    0.442E-02
DAV:   2    -0.812909862472E+02   -0.48007E-06   -0.50932E-05  4208   0.655E-02
   1 F= -.81290986E+02 E0= -.81290986E+02  d E =0.000000E+00
