 running on  100 total cores
 distrk:  each k-point on  100 cores,    1 groups
 distr:  one band on   25 cores,    4 groups
 using from now: INCAR     
 vasp.5.4.4.18Apr17-6-g9f103f2a35 (build May 23 2017 16:08:52) complex          
  
 POSCAR found :  4 types and      75 ions
 scaLAPACK will be used

 ----------------------------------------------------------------------------- 
|                                                                             |
|           W    W    AA    RRRRR   N    N  II  N    N   GGGG   !!!           |
|           W    W   A  A   R    R  NN   N  II  NN   N  G    G  !!!           |
|           W    W  A    A  R    R  N N  N  II  N N  N  G       !!!           |
|           W WW W  AAAAAA  RRRRR   N  N N  II  N  N N  G  GGG   !            |
|           WW  WW  A    A  R   R   N   NN  II  N   NN  G    G                |
|           W    W  A    A  R    R  N    N  II  N    N   GGGG   !!!           |
|                                                                             |
|      For optimal performance we recommend to set                            |
|        NCORE= 4 - approx SQRT( number of cores)                             |
|      NCORE specifies how many cores store one orbital (NPAR=cpu/NCORE).     |
|      This setting can  greatly improve the performance of VASP for DFT.     |
|      The default,   NCORE=1            might be grossly inefficient         |
|      on modern multi-core architectures or massively parallel machines.     |
|      Do your own testing !!!!                                               |
|      Unfortunately you need to use the default for GW and RPA calculations. |
|      (for HF NCORE is supported but not extensively tested yet)             |
|                                                                             |
 ----------------------------------------------------------------------------- 


 ----------------------------------------------------------------------------- 
|                                                                             |
|  ADVICE TO THIS USER RUNNING 'VASP/VAMP'   (HEAR YOUR MASTER'S VOICE ...):  |
|                                                                             |
|      You have a (more or less) 'large supercell' and for larger cells       |
|      it might be more efficient to use real space projection opertators     |
|      So try LREAL= Auto  in the INCAR   file.                               |
|      Mind:          For very  accurate calculation you might also keep the  |
|      reciprocal projection scheme          (i.e. LREAL=.FALSE.)             |
|                                                                             |
 ----------------------------------------------------------------------------- 

 LDA part: xc-table for Pade appr. of Perdew
 POSCAR, INCAR and KPOINTS ok, starting setup
 FFT: planning ...
 WAVECAR not read
 entering main loop
       N       E                     dE             d eps       ncg     rms          rms(c)
DAV:   1     0.687885085918E+04    0.68789E+04   -0.32024E+05 11776   0.169E+03
DAV:   2     0.228166503064E+03   -0.66507E+04   -0.63521E+04 13856   0.564E+02
DAV:   3    -0.654629686124E+03   -0.88280E+03   -0.87059E+03 16632   0.192E+02
DAV:   4    -0.716604942251E+03   -0.61975E+02   -0.61331E+02 18904   0.512E+01
DAV:   5    -0.721125801422E+03   -0.45209E+01   -0.44749E+01 21496   0.114E+01    0.877E+01
DAV:   6    -0.610829999945E+03    0.11030E+03   -0.64969E+02 16544   0.530E+01    0.583E+01
DAV:   7    -0.619212711281E+03   -0.83827E+01   -0.18626E+02 17400   0.325E+01    0.407E+01
DAV:   8    -0.611172601749E+03    0.80401E+01   -0.42519E+01 17432   0.190E+01    0.217E+01
DAV:   9    -0.627780632961E+03   -0.16608E+02   -0.52119E+01 17480   0.213E+01    0.291E+01
DAV:  10    -0.613782897828E+03    0.13998E+02   -0.50458E+01 16752   0.166E+01    0.165E+01
DAV:  11    -0.609609664724E+03    0.41732E+01   -0.20546E+01 17304   0.841E+00    0.526E+00
DAV:  12    -0.608822559934E+03    0.78710E+00   -0.19977E+00 18352   0.343E+00    0.269E+00
DAV:  13    -0.608865168212E+03   -0.42608E-01   -0.87194E-01 17776   0.217E+00    0.240E+00
DAV:  14    -0.608811821823E+03    0.53346E-01   -0.33621E-01 16576   0.140E+00    0.130E+00
DAV:  15    -0.608798695505E+03    0.13126E-01   -0.11890E-01 17656   0.726E-01    0.572E-01
DAV:  16    -0.608805062343E+03   -0.63668E-02   -0.21339E-02 14952   0.364E-01    0.380E-01
DAV:  17    -0.608799099368E+03    0.59630E-02   -0.16861E-02 16280   0.257E-01    0.218E-01
DAV:  18    -0.608798350069E+03    0.74930E-03   -0.22281E-03 18328   0.149E-01    0.142E-01
DAV:  19    -0.608801180476E+03   -0.28304E-02   -0.22906E-03 18184   0.115E-01    0.840E-02
DAV:  20    -0.608800071650E+03    0.11088E-02   -0.36800E-04 16928   0.512E-02    0.366E-02
DAV:  21    -0.608799852291E+03    0.21936E-03   -0.25203E-04 14616   0.250E-02    0.273E-02
DAV:  22    -0.608799855263E+03   -0.29717E-05   -0.18131E-05  8312   0.113E-02
   1 F= -.60879986E+03 E0= -.60879986E+03  d E =-.608800E+03
 curvature:   0.00 expect dE= 0.000E+00 dE for cont linesearch  0.000E+00
 trial: gam= 0.00000 g(F)=  0.685E+00 g(S)=  0.122E+02 ort = 0.000E+00 (trialstep = 0.100E+01)
 search vector abs. value=  0.128E+02
 bond charge predicted
       N       E                     dE             d eps       ncg     rms          rms(c)
DAV:   1    -0.692211572026E+03   -0.83412E+02   -0.27249E+03 15160   0.133E+02    0.844E+01
DAV:   2    -0.651324326956E+03    0.40887E+02   -0.51081E+02 16688   0.600E+01    0.371E+01
DAV:   3    -0.614504644050E+03    0.36820E+02   -0.11169E+02 18112   0.294E+01    0.235E+01
DAV:   4    -0.619286948800E+03   -0.47823E+01   -0.55254E+01 17448   0.188E+01    0.226E+01
DAV:   5    -0.609550601294E+03    0.97363E+01   -0.24038E+01 17544   0.125E+01    0.175E+01
DAV:   6    -0.608617138206E+03    0.93346E+00   -0.16611E+01 16472   0.793E+00    0.148E+01
DAV:   7    -0.609560588393E+03   -0.94345E+00   -0.10397E+01 18136   0.668E+00    0.133E+01
DAV:   8    -0.608560034290E+03    0.10006E+01   -0.69722E+00 17328   0.447E+00    0.771E+00
DAV:   9    -0.608565655920E+03   -0.56216E-02   -0.26388E+00 17832   0.399E+00    0.636E+00
DAV:  10    -0.608286604060E+03    0.27905E+00   -0.35242E+00 18344   0.303E+00    0.293E+00
DAV:  11    -0.608172575523E+03    0.11403E+00   -0.54767E-01 17608   0.146E+00    0.195E+00
DAV:  12    -0.608149981444E+03    0.22594E-01   -0.16517E-01 17248   0.740E-01    0.160E+00
DAV:  13    -0.608156599352E+03   -0.66179E-02   -0.93716E-02 16640   0.532E-01    0.152E+00
DAV:  14    -0.608162635117E+03   -0.60358E-02   -0.23270E-01 16880   0.652E-01    0.144E+00
DAV:  15    -0.608140569239E+03    0.22066E-01   -0.25495E-02 17048   0.442E-01    0.454E-01
DAV:  16    -0.608142119647E+03   -0.15504E-02   -0.61187E-03 19856   0.155E-01    0.156E-01
DAV:  17    -0.608141801120E+03    0.31853E-03   -0.17624E-03 17064   0.842E-02    0.219E-01
DAV:  18    -0.608142523598E+03   -0.72248E-03   -0.16971E-03 16616   0.727E-02    0.669E-02
DAV:  19    -0.608142637414E+03   -0.11382E-03   -0.19495E-04 17048   0.265E-02    0.530E-02
DAV:  20    -0.608143002688E+03   -0.36527E-03   -0.73044E-05 11328   0.186E-02    0.260E-02
DAV:  21    -0.608143002408E+03    0.28015E-06   -0.10916E-05  8160   0.734E-03
   2 F= -.60814300E+03 E0= -.60814300E+03  d E =0.656853E+00
 trial-energy change:    0.656853  1 .order    0.038145  -12.847895   12.924184
 step:   0.4627(harm=  0.4985)  dis= 0.02058  next Energy=  -611.710986 (dE=-0.291E+01)
 bond charge predicted
       N       E                     dE             d eps       ncg     rms          rms(c)
DAV:   1    -0.637112949978E+03   -0.28970E+02   -0.80442E+02 14944   0.712E+01    0.421E+01
DAV:   2    -0.616383968290E+03    0.20729E+02   -0.81359E+01 14200   0.209E+01    0.169E+01
DAV:   3    -0.619594870079E+03   -0.32109E+01   -0.66837E+01 16984   0.201E+01    0.152E+01
DAV:   4    -0.613846244652E+03    0.57486E+01   -0.11959E+01 18048   0.920E+00    0.967E+00
DAV:   5    -0.612673017839E+03    0.11732E+01   -0.66606E+00 17744   0.539E+00    0.740E+00
DAV:   6    -0.611451922370E+03    0.12211E+01   -0.30543E+00 18752   0.515E+00    0.411E+00
DAV:   7    -0.611512783152E+03   -0.60861E-01   -0.23311E+00 17288   0.243E+00    0.310E+00
DAV:   8    -0.611533062035E+03   -0.20279E-01   -0.49018E-01 19128   0.126E+00    0.248E+00
DAV:   9    -0.611573980041E+03   -0.40918E-01   -0.17106E-01 18776   0.943E-01    0.151E+00
DAV:  10    -0.611631528924E+03   -0.57549E-01   -0.20623E-01 18224   0.855E-01    0.104E+00
DAV:  11    -0.611634126854E+03   -0.25979E-02   -0.89602E-02 18944   0.637E-01    0.438E-01
DAV:  12    -0.611644634756E+03   -0.10508E-01   -0.28644E-02 19624   0.338E-01    0.655E-01
DAV:  13    -0.611634488077E+03    0.10147E-01   -0.12348E-02 17744   0.226E-01    0.245E-01
DAV:  14    -0.611631563389E+03    0.29247E-02   -0.25614E-03 18832   0.138E-01    0.840E-02
DAV:  15    -0.611631679807E+03   -0.11642E-03   -0.54944E-04 15464   0.514E-02    0.572E-02
DAV:  16    -0.611632018096E+03   -0.33829E-03   -0.13475E-04 16064   0.261E-02    0.326E-02
DAV:  17    -0.611632676922E+03   -0.65883E-03   -0.80228E-05 12472   0.221E-02    0.344E-02
DAV:  18    -0.611632225041E+03    0.45188E-03   -0.51790E-05 10064   0.187E-02    0.981E-03
DAV:  19    -0.611632190965E+03    0.34077E-04   -0.68945E-06  7088   0.690E-03    0.483E-03
DAV:  20    -0.611632097211E+03    0.93753E-04   -0.35232E-06  7064   0.556E-03    0.409E-03
DAV:  21    -0.611632132268E+03   -0.35057E-04   -0.19061E-06  6944   0.440E-03    0.131E-03
DAV:  22    -0.611632119255E+03    0.13013E-04   -0.10921E-06  6896   0.276E-03    0.145E-03
DAV:  23    -0.611632135061E+03   -0.15806E-04   -0.55622E-07  6856   0.239E-03    0.925E-04
DAV:  24    -0.611632142931E+03   -0.78703E-05   -0.34018E-07  6832   0.147E-03
   3 F= -.61163214E+03 E0= -.61163214E+03  d E =-.283229E+01
 curvature:  -0.25 expect dE=-0.574E-01 dE for cont linesearch -0.125E-02
 ZBRENT: interpolating
 opt :   0.4537  next Energy=  -611.633286 (dE=-0.283E+01)
 bond charge predicted
       N       E                     dE             d eps       ncg     rms          rms(c)
DAV:   1    -0.611639093708E+03   -0.69586E-02   -0.22642E-01 15176   0.121E+00    0.674E-01
DAV:   2    -0.611638052363E+03    0.10413E-02   -0.25450E-02 14664   0.375E-01    0.327E-01
DAV:   3    -0.611632319985E+03    0.57324E-02   -0.21577E-02 16080   0.338E-01    0.552E-01
DAV:   4    -0.611631438304E+03    0.88168E-03   -0.16574E-02 15432   0.285E-01    0.301E-01
DAV:   5    -0.611632903604E+03   -0.14653E-02   -0.87614E-03 15792   0.172E-01    0.941E-02
DAV:   6    -0.611633254028E+03   -0.35042E-03   -0.83143E-04 17272   0.539E-02    0.703E-02
DAV:   7    -0.611633134761E+03    0.11927E-03   -0.15712E-04 17232   0.292E-02    0.600E-02
DAV:   8    -0.611633111242E+03    0.23518E-04   -0.62516E-05 13216   0.171E-02    0.391E-02
DAV:   9    -0.611633066152E+03    0.45091E-04   -0.99415E-05 15512   0.241E-02    0.239E-02
DAV:  10    -0.611633062149E+03    0.40023E-05   -0.42851E-05 11872   0.204E-02
   4 F= -.61163306E+03 E0= -.61163306E+03  d E =-.283321E+01
 curvature:  -0.23 expect dE=-0.495E-01 dE for cont linesearch -0.111E-04
 trial: gam= 0.01892 g(F)=  0.207E+00 g(S)=  0.105E-01 ort =-0.251E-01 (trialstep = 0.891E+00)
 search vector abs. value=  0.222E+00
 bond charge predicted
       N       E                     dE             d eps       ncg     rms          rms(c)
DAV:   1    -0.611723523493E+03   -0.90457E-01   -0.21460E+01 13024   0.938E+00    0.174E+00
DAV:   2    -0.611801534109E+03   -0.78011E-01   -0.12302E+00 13648   0.234E+00    0.175E+00
DAV:   3    -0.611809879030E+03   -0.83449E-02   -0.26393E-01 16696   0.111E+00    0.133E+00
DAV:   4    -0.611823966128E+03   -0.14087E-01   -0.38963E-01 16272   0.888E-01    0.151E+00
DAV:   5    -0.611793258498E+03    0.30708E-01   -0.21391E-01 15728   0.711E-01    0.725E-01
DAV:   6    -0.611797745034E+03   -0.44865E-02   -0.17146E-02 18072   0.361E-01    0.332E-01
DAV:   7    -0.611794239732E+03    0.35053E-02   -0.86227E-03 18016   0.225E-01    0.199E-01
DAV:   8    -0.611795050115E+03   -0.81038E-03   -0.59236E-03 18248   0.120E-01    0.149E-01
DAV:   9    -0.611794418331E+03    0.63178E-03   -0.13319E-03 18256   0.694E-02    0.885E-02
DAV:  10    -0.611794299501E+03    0.11883E-03   -0.39304E-04 17280   0.435E-02    0.680E-02
DAV:  11    -0.611794697342E+03   -0.39784E-03   -0.69586E-04 15088   0.386E-02    0.972E-02
DAV:  12    -0.611794494507E+03    0.20284E-03   -0.87066E-04 12464   0.224E-02    0.322E-02
DAV:  13    -0.611794436229E+03    0.58279E-04   -0.53475E-05  7600   0.114E-02    0.188E-02
DAV:  14    -0.611794448421E+03   -0.12192E-04   -0.27275E-05  7288   0.752E-03    0.209E-02
DAV:  15    -0.611794435323E+03    0.13098E-04   -0.81654E-06  6816   0.637E-03    0.113E-02
DAV:  16    -0.611794426754E+03    0.85688E-05   -0.66273E-06  6744   0.456E-03
   5 F= -.61179443E+03 E0= -.61179443E+03  d E =-.161365E+00
 trial-energy change:   -0.161365  1 .order   -0.151914   -0.193764   -0.110064
 step:   1.4482(harm=  2.0621)  dis= 0.05043  next Energy=  -611.831180 (dE=-0.198E+00)
 bond charge predicted
       N       E                     dE             d eps       ncg     rms          rms(c)
DAV:   1    -0.611824887242E+03   -0.30452E-01   -0.83902E+00 13040   0.589E+00    0.112E+00
DAV:   2    -0.611860546751E+03   -0.35660E-01   -0.55050E-01 13984   0.151E+00    0.131E+00
DAV:   3    -0.611856444666E+03    0.41021E-02   -0.14405E-01 16400   0.761E-01    0.813E-01
DAV:   4    -0.611867541266E+03   -0.11097E-01   -0.19634E-01 16456   0.579E-01    0.116E+00
DAV:   5    -0.611850240609E+03    0.17301E-01   -0.73483E-02 16080   0.475E-01    0.393E-01
DAV:   6    -0.611858388336E+03   -0.81477E-02   -0.88634E-03 17880   0.258E-01    0.374E-01
DAV:   7    -0.611851389575E+03    0.69988E-02   -0.19032E-02 17296   0.200E-01    0.181E-01
DAV:   8    -0.611852403053E+03   -0.10135E-02   -0.14816E-03 18720   0.787E-02    0.134E-01
DAV:   9    -0.611852109788E+03    0.29327E-03   -0.63327E-04 17672   0.541E-02    0.878E-02
DAV:  10    -0.611851961694E+03    0.14809E-03   -0.18758E-03 15248   0.299E-02    0.104E-01
DAV:  11    -0.611852205733E+03   -0.24404E-03   -0.12324E-04 12936   0.221E-02    0.687E-02
DAV:  12    -0.611852193025E+03    0.12708E-04   -0.66678E-04  9928   0.153E-02    0.744E-02
DAV:  13    -0.611852115779E+03    0.77247E-04   -0.15806E-04  7336   0.106E-02    0.690E-02
DAV:  14    -0.611852192813E+03   -0.77035E-04   -0.54022E-04  7080   0.721E-03    0.758E-02
DAV:  15    -0.611852155368E+03    0.37445E-04   -0.39239E-05  6800   0.608E-03    0.652E-02
DAV:  16    -0.611852149543E+03    0.58250E-05   -0.18735E-04  6664   0.393E-03    0.708E-02
DAV:  17    -0.611852119276E+03    0.30267E-04   -0.23080E-04  6648   0.400E-03    0.734E-02
DAV:  18    -0.611852140392E+03   -0.21116E-04   -0.77043E-05  6624   0.290E-03    0.679E-02
DAV:  19    -0.611852116267E+03    0.24124E-04   -0.25462E-04  6600   0.278E-03    0.738E-02
DAV:  20    -0.611852135547E+03   -0.19280E-04   -0.26781E-05  6552   0.240E-03    0.572E-02
DAV:  21    -0.611852116499E+03    0.19048E-04   -0.21082E-04  6528   0.210E-03    0.733E-02
DAV:  22    -0.611852136086E+03   -0.19587E-04   -0.29346E-05  6536   0.201E-03    0.599E-02
DAV:  23    -0.611852116579E+03    0.19507E-04   -0.20684E-04  6520   0.192E-03    0.728E-02
DAV:  24    -0.611852137521E+03   -0.20942E-04   -0.41034E-05  6512   0.187E-03    0.646E-02
DAV:  25    -0.611852117089E+03    0.20432E-04   -0.21089E-04  6512   0.185E-03    0.724E-02
DAV:  26    -0.611852138254E+03   -0.21166E-04   -0.46806E-05  6504   0.182E-03    0.657E-02
DAV:  27    -0.611852118096E+03    0.20158E-04   -0.20423E-04  6464   0.177E-03    0.724E-02
DAV:  28    -0.611852138214E+03   -0.20118E-04   -0.47735E-05  6440   0.175E-03    0.658E-02
DAV:  29    -0.611852118563E+03    0.19651E-04   -0.19887E-04  6432   0.172E-03    0.722E-02
DAV:  30    -0.611852138630E+03   -0.20067E-04   -0.50792E-05  6400   0.171E-03    0.662E-02
DAV:  31    -0.611852119118E+03    0.19512E-04   -0.19402E-04  6392   0.169E-03    0.721E-02
DAV:  32    -0.611852138780E+03   -0.19662E-04   -0.52932E-05  6376   0.169E-03    0.664E-02
DAV:  33    -0.611852119511E+03    0.19269E-04   -0.18996E-04  6360   0.167E-03    0.720E-02
DAV:  34    -0.611852139108E+03   -0.19597E-04   -0.55857E-05  6344   0.167E-03    0.666E-02
DAV:  35    -0.611852119941E+03    0.19167E-04   -0.18603E-04  6344   0.166E-03    0.720E-02
DAV:  36    -0.611852139307E+03   -0.19366E-04   -0.58228E-05  6344   0.166E-03    0.668E-02
DAV:  37    -0.611852120287E+03    0.19020E-04   -0.18255E-04  6344   0.165E-03    0.719E-02
DAV:  38    -0.611852139585E+03   -0.19298E-04   -0.60928E-05  6336   0.165E-03    0.670E-02
DAV:  39    -0.611852120647E+03    0.18938E-04   -0.17910E-04  6320   0.164E-03    0.718E-02
DAV:  40    -0.611852139794E+03   -0.19147E-04   -0.63325E-05  6320   0.165E-03    0.672E-02
DAV:  41    -0.611852120959E+03    0.18836E-04   -0.17595E-04  6312   0.164E-03    0.717E-02
DAV:  42    -0.611852140045E+03   -0.19086E-04   -0.65861E-05  6296   0.164E-03    0.673E-02
DAV:  43    -0.611852121275E+03    0.18769E-04   -0.17284E-04  6296   0.164E-03    0.717E-02
DAV:  44    -0.611852140248E+03   -0.18973E-04   -0.68171E-05  6296   0.164E-03    0.675E-02
DAV:  45    -0.611852121556E+03    0.18692E-04   -0.16996E-04  6296   0.163E-03    0.716E-02
DAV:  46    -0.611852140472E+03   -0.18916E-04   -0.70514E-05  6296   0.164E-03    0.676E-02
DAV:  47    -0.611852121727E+03    0.18745E-04   -0.16591E-04  6296   0.163E-03    0.715E-02
DAV:  48    -0.611852141197E+03   -0.19470E-04   -0.69676E-05  6296   0.164E-03    0.676E-02
DAV:  49    -0.611852121822E+03    0.19375E-04   -0.15254E-04  6296   0.166E-03    0.712E-02
DAV:  50    -0.611852141858E+03   -0.20036E-04   -0.53870E-05  6280   0.179E-03    0.667E-02
DAV:  51    -0.611852122802E+03    0.19056E-04   -0.12788E-04  6272   0.194E-03    0.710E-02
DAV:  52    -0.611852141936E+03   -0.19134E-04   -0.64207E-05  6272   0.185E-03    0.674E-02
DAV:  53    -0.611852123128E+03    0.18808E-04   -0.14618E-04  6272   0.169E-03    0.711E-02
DAV:  54    -0.611852140520E+03   -0.17391E-04   -0.76044E-05  6272   0.164E-03    0.678E-02
DAV:  55    -0.611852125978E+03    0.14542E-04   -0.15131E-04  6272   0.164E-03    0.714E-02
DAV:  56    -0.611852136254E+03   -0.10277E-04   -0.77716E-05  6272   0.168E-03    0.679E-02
DAV:  57    -0.611852131534E+03    0.47198E-05   -0.15001E-04  6272   0.175E-03    0.712E-02
DAV:  58    -0.611852130566E+03    0.96813E-06   -0.73526E-05  6256   0.184E-03
   6 F= -.61185213E+03 E0= -.61185213E+03  d E =-.219068E+00
 curvature:  -0.76 expect dE=-0.785E-01 dE for cont linesearch -0.139E-01
 ZBRENT: increasing intervall
 opt :   2.5630  next Energy=  -611.856277 (dE=-0.223E+00)
 bond charge predicted
       N       E                     dE             d eps       ncg     rms          rms(c)
DAV:   1    -0.611758309100E+03    0.93822E-01   -0.33483E+01 13032   0.118E+01    0.241E+00
DAV:   2    -0.612032765071E+03   -0.27446E+00   -0.29900E+00 14376   0.334E+00    0.360E+00
DAV:   3    -0.611870579548E+03    0.16219E+00   -0.44633E-01 15856   0.186E+00    0.147E+00
DAV:   4    -0.611948345874E+03   -0.77766E-01   -0.85837E-01 17240   0.125E+00    0.277E+00
DAV:   5    -0.611865824821E+03    0.82521E-01   -0.55306E-01 16696   0.997E-01    0.881E-01
DAV:   6    -0.611874884768E+03   -0.90599E-02   -0.73033E-02 18416   0.533E-01    0.777E-01
DAV:   7    -0.611866207096E+03    0.86777E-02   -0.52596E-02 17104   0.331E-01    0.337E-01
DAV:   8    -0.611868085633E+03   -0.18785E-02   -0.11651E-02 18552   0.212E-01    0.160E-01
DAV:   9    -0.611866643135E+03    0.14425E-02   -0.14474E-03 15512   0.999E-02    0.106E-01
DAV:  10    -0.611868080619E+03   -0.14375E-02   -0.53437E-04 19024   0.628E-02    0.643E-02
DAV:  11    -0.611867695103E+03    0.38552E-03   -0.15214E-04 16168   0.404E-02    0.321E-02
DAV:  12    -0.611867645483E+03    0.49620E-04   -0.66391E-05 13264   0.217E-02    0.133E-02
DAV:  13    -0.611867769009E+03   -0.12353E-03   -0.12695E-05  7656   0.102E-02    0.881E-03
DAV:  14    -0.611867667045E+03    0.10196E-03   -0.50983E-06  7016   0.707E-03    0.370E-03
DAV:  15    -0.611867667130E+03   -0.85223E-07   -0.18789E-06  6888   0.389E-03
   7 F= -.61186767E+03 E0= -.61186767E+03  d E =-.234605E+00
 curvature:  -0.23 expect dE=-0.647E-01 dE for cont linesearch -0.323E-02
 ZBRENT: bracketing found
 ZBRENT: interpolating
 opt :   2.0403  next Energy=  -611.882346 (dE=-0.249E+00)
 bond charge predicted
       N       E                     dE             d eps       ncg     rms          rms(c)
DAV:   1    -0.611848066275E+03    0.19601E-01   -0.72911E+00 12912   0.554E+00    0.102E+00
DAV:   2    -0.611896904400E+03   -0.48838E-01   -0.43241E-01 13768   0.140E+00    0.154E+00
DAV:   3    -0.611885370682E+03    0.11534E-01   -0.32969E-01 16384   0.694E-01    0.105E+00
DAV:   4    -0.611878272250E+03    0.70984E-02   -0.15222E-01 16240   0.605E-01    0.902E-01
DAV:   5    -0.611878883353E+03   -0.61110E-03   -0.57882E-02 16208   0.408E-01    0.390E-01
DAV:   6    -0.611879342611E+03   -0.45926E-03   -0.10416E-02 17352   0.215E-01    0.259E-01
DAV:   7    -0.611877971755E+03    0.13709E-02   -0.54470E-03 17016   0.128E-01    0.123E-01
DAV:   8    -0.611877905253E+03    0.66503E-04   -0.10034E-03 20104   0.707E-02    0.683E-02
DAV:   9    -0.611876895809E+03    0.10094E-02   -0.24617E-04 15784   0.383E-02    0.473E-02
DAV:  10    -0.611877557531E+03   -0.66172E-03   -0.49726E-05 13992   0.301E-02    0.246E-02
DAV:  11    -0.611877405606E+03    0.15193E-03   -0.38823E-05 10904   0.165E-02    0.136E-02
DAV:  12    -0.611877469125E+03   -0.63519E-04   -0.84180E-06  7152   0.893E-03    0.702E-03
DAV:  13    -0.611877427774E+03    0.41352E-04   -0.33381E-06  6896   0.607E-03    0.556E-03
DAV:  14    -0.611877429996E+03   -0.22229E-05   -0.24155E-06  6800   0.430E-03
   8 F= -.61187743E+03 E0= -.61187743E+03  d E =-.244368E+00
 curvature:  -1.03 expect dE=-0.171E+00 dE for cont linesearch -0.899E-05
 trial: gam= 0.76615 g(F)=  0.162E+00 g(S)=  0.414E-02 ort = 0.139E-02 (trialstep = 0.833E+00)
 search vector abs. value=  0.298E+00
 bond charge predicted
       N       E                     dE             d eps       ncg     rms          rms(c)
DAV:   1    -0.611877868543E+03   -0.44077E-03   -0.29086E+01 12456   0.112E+01    0.173E+00
DAV:   2    -0.611977163302E+03   -0.99295E-01   -0.13689E+00 13656   0.272E+00    0.187E+00
DAV:   3    -0.611989330052E+03   -0.12167E-01   -0.29233E-01 17376   0.115E+00    0.162E+00
DAV:   4    -0.611998933994E+03   -0.96039E-02   -0.48200E-01 16232   0.905E-01    0.167E+00
DAV:   5    -0.611967348229E+03    0.31586E-01   -0.21071E-01 15656   0.672E-01    0.818E-01
DAV:   6    -0.611973428686E+03   -0.60805E-02   -0.68769E-02 18824   0.454E-01    0.582E-01
DAV:   7    -0.611968531664E+03    0.48970E-02   -0.22177E-02 16656   0.314E-01    0.234E-01
DAV:   8    -0.611967411140E+03    0.11205E-02   -0.29631E-03 19472   0.138E-01    0.131E-01
DAV:   9    -0.611966839602E+03    0.57154E-03   -0.10276E-03 17032   0.804E-02    0.834E-02
DAV:  10    -0.611967374272E+03   -0.53467E-03   -0.31196E-04 15880   0.446E-02    0.473E-02
DAV:  11    -0.611966557454E+03    0.81682E-03   -0.15080E-04 15400   0.354E-02    0.325E-02
DAV:  12    -0.611967023981E+03   -0.46653E-03   -0.65388E-05 12296   0.236E-02    0.126E-02
DAV:  13    -0.611966957925E+03    0.66056E-04   -0.25037E-05  7120   0.951E-03    0.783E-03
DAV:  14    -0.611966944826E+03    0.13099E-04   -0.55987E-06  6896   0.605E-03    0.837E-03
DAV:  15    -0.611966996961E+03   -0.52136E-04   -0.10615E-05  6880   0.490E-03    0.590E-03
DAV:  16    -0.611966953222E+03    0.43739E-04   -0.42143E-06  6792   0.407E-03    0.439E-03
DAV:  17    -0.611966953284E+03   -0.61205E-07   -0.89431E-07  6752   0.265E-03
   9 F= -.61196695E+03 E0= -.61196695E+03  d E =-.895233E-01
 trial-energy change:   -0.089523  1 .order   -0.097224   -0.139139   -0.055309
 step:   1.3825(harm=  1.3825)  dis= 0.04884  next Energy=  -611.992899 (dE=-0.115E+00)
 bond charge predicted
       N       E                     dE             d eps       ncg     rms          rms(c)
DAV:   1    -0.611943799078E+03    0.23154E-01   -0.12656E+01 12360   0.738E+00    0.115E+00
DAV:   2    -0.611986548422E+03   -0.42749E-01   -0.62164E-01 13600   0.180E+00    0.124E+00
DAV:   3    -0.611993008360E+03   -0.64599E-02   -0.13799E-01 17536   0.771E-01    0.989E-01
DAV:   4    -0.611993695544E+03   -0.68718E-03   -0.14930E-01 16248   0.574E-01    0.929E-01
DAV:   5    -0.611981637165E+03    0.12058E-01   -0.52054E-02 15904   0.456E-01    0.453E-01
DAV:   6    -0.611984708228E+03   -0.30711E-02   -0.21890E-02 18096   0.287E-01    0.391E-01
DAV:   7    -0.611982589967E+03    0.21183E-02   -0.14339E-02 16912   0.200E-01    0.181E-01
DAV:   8    -0.611981346054E+03    0.12439E-02   -0.64668E-03 19408   0.103E-01    0.231E-01
DAV:   9    -0.611981529503E+03   -0.18345E-03   -0.29405E-03 17680   0.609E-02    0.832E-02
DAV:  10    -0.611981462836E+03    0.66668E-04   -0.13994E-03 15016   0.274E-02    0.881E-02
DAV:  11    -0.611981468166E+03   -0.53307E-05   -0.26494E-05 12088   0.189E-02
  10 F= -.61198147E+03 E0= -.61198147E+03  d E =-.104038E+00
 curvature:  -1.23 expect dE=-0.665E-01 dE for cont linesearch -0.827E-06
 trial: gam= 0.31375 g(F)=  0.520E-01 g(S)=  0.190E-02 ort = 0.447E-03 (trialstep = 0.943E+00)
 search vector abs. value=  0.835E-01
 bond charge predicted
       N       E                     dE             d eps       ncg     rms          rms(c)
DAV:   1    -0.611927580202E+03    0.53883E-01   -0.12018E+01 13104   0.927E+00    0.115E+00
DAV:   2    -0.612018623382E+03   -0.91043E-01   -0.10925E+00 13392   0.224E+00    0.926E-01
DAV:   3    -0.612021203051E+03   -0.25797E-02   -0.19903E-01 17576   0.848E-01    0.985E-01
DAV:   4    -0.612015275624E+03    0.59274E-02   -0.10478E-01 16672   0.617E-01    0.691E-01
DAV:   5    -0.612011064560E+03    0.42111E-02   -0.43129E-02 18320   0.392E-01    0.426E-01
DAV:   6    -0.612014798639E+03   -0.37341E-02   -0.90414E-03 17176   0.254E-01    0.323E-01
DAV:   7    -0.612009078075E+03    0.57206E-02   -0.44871E-03 17424   0.174E-01    0.122E-01
DAV:   8    -0.612009863715E+03   -0.78564E-03   -0.72155E-04 18496   0.653E-02    0.913E-02
DAV:   9    -0.612009418321E+03    0.44539E-03   -0.37712E-04 16032   0.448E-02    0.592E-02
DAV:  10    -0.612009583229E+03   -0.16491E-03   -0.10721E-04 14312   0.330E-02    0.392E-02
DAV:  11    -0.612009430427E+03    0.15280E-03   -0.14137E-04 12216   0.225E-02    0.241E-02
DAV:  12    -0.612009422374E+03    0.80535E-05   -0.16963E-05  9616   0.139E-02
  11 F= -.61200942E+03 E0= -.61200942E+03  d E =-.279542E-01
 trial-energy change:   -0.027954  1 .order   -0.028259   -0.050927   -0.005590
 step:   1.0647(harm=  1.0591)  dis= 0.01481  next Energy=  -612.009783 (dE=-0.283E-01)
 bond charge predicted
       N       E                     dE             d eps       ncg     rms          rms(c)
DAV:   1    -0.612008627419E+03    0.80301E-03   -0.19961E-01 12936   0.120E+00    0.145E-01
DAV:   2    -0.612009718385E+03   -0.10910E-02   -0.17861E-02 13296   0.288E-01    0.105E-01
DAV:   3    -0.612010129922E+03   -0.41154E-03   -0.15181E-03 18216   0.103E-01    0.101E-01
DAV:   4    -0.612009923020E+03    0.20690E-03   -0.67413E-04 16056   0.740E-02    0.878E-02
DAV:   5    -0.612009444417E+03    0.47860E-03   -0.10215E-03 16648   0.492E-02    0.777E-02
DAV:   6    -0.612010108807E+03   -0.66439E-03   -0.12988E-04 14944   0.367E-02    0.330E-02
DAV:   7    -0.612009723190E+03    0.38562E-03   -0.54793E-05 11608   0.208E-02    0.201E-02
DAV:   8    -0.612009831216E+03   -0.10803E-03   -0.12461E-05  7816   0.109E-02    0.151E-02
DAV:   9    -0.612009780229E+03    0.50987E-04   -0.74535E-06  7088   0.835E-03    0.112E-02
DAV:  10    -0.612009791733E+03   -0.11505E-04   -0.56145E-06  6904   0.740E-03    0.754E-03
DAV:  11    -0.612009766438E+03    0.25296E-04   -0.24342E-06  6728   0.484E-03    0.674E-03
DAV:  12    -0.612009772277E+03   -0.58396E-05   -0.13823E-06  6608   0.319E-03
  12 F= -.61200977E+03 E0= -.61200977E+03  d E =-.283041E-01
 curvature:  -0.82 expect dE=-0.742E-02 dE for cont linesearch -0.928E-05
 trial: gam= 0.16405 g(F)=  0.777E-02 g(S)=  0.132E-02 ort =-0.974E-03 (trialstep = 0.967E+00)
 search vector abs. value=  0.110E-01
 bond charge predicted
       N       E                     dE             d eps       ncg     rms          rms(c)
DAV:   1    -0.612016377367E+03   -0.66109E-02   -0.23522E+00 12936   0.310E+00    0.685E-01
DAV:   2    -0.612013637311E+03    0.27401E-02   -0.92632E-02 14360   0.745E-01    0.429E-01
DAV:   3    -0.612023773617E+03   -0.10136E-01   -0.13843E-02 17600   0.340E-01    0.546E-01
DAV:   4    -0.612015750352E+03    0.80233E-02   -0.20189E-02 16208   0.253E-01    0.292E-01
DAV:   5    -0.612014073980E+03    0.16764E-02   -0.78255E-03 16616   0.243E-01    0.244E-01
DAV:   6    -0.612014078700E+03   -0.47195E-05   -0.48006E-03 17504   0.147E-01    0.822E-02
DAV:   7    -0.612014024705E+03    0.53995E-04   -0.59037E-04 17552   0.498E-02    0.724E-02
DAV:   8    -0.612014048977E+03   -0.24272E-04   -0.84886E-05 15648   0.185E-02    0.644E-02
DAV:   9    -0.612014115648E+03   -0.66671E-04   -0.31198E-05 11216   0.172E-02    0.372E-02
DAV:  10    -0.612014230809E+03   -0.11516E-03   -0.59074E-05 13072   0.226E-02    0.191E-02
DAV:  11    -0.612014200303E+03    0.30506E-04   -0.19393E-05  8928   0.153E-02    0.774E-03
DAV:  12    -0.612014189948E+03    0.10355E-04   -0.81400E-06  7072   0.707E-03    0.411E-03
DAV:  13    -0.612014193344E+03   -0.33961E-05   -0.34181E-06  6728   0.564E-03
  13 F= -.61201419E+03 E0= -.61201419E+03  d E =-.442107E-02
 trial-energy change:   -0.004421  1 .order   -0.004496   -0.008635   -0.000358
 step:   1.0116(harm=  1.0090)  dis= 0.00846  next Energy=  -612.014202 (dE=-0.443E-02)
 bond charge predicted
       N       E                     dE             d eps       ncg     rms          rms(c)
DAV:   1    -0.612014270666E+03   -0.80718E-04   -0.49009E-03 12960   0.142E-01    0.329E-02
DAV:   2    -0.612013984043E+03    0.28662E-03   -0.19273E-04 14352   0.352E-02    0.226E-02
DAV:   3    -0.612014385831E+03   -0.40179E-03   -0.48234E-05 10296   0.205E-02    0.254E-02
DAV:   4    -0.612014224772E+03    0.16106E-03   -0.34963E-05  8648   0.165E-02    0.157E-02
DAV:   5    -0.612014114341E+03    0.11043E-03   -0.16955E-05  7776   0.111E-02    0.101E-02
DAV:   6    -0.612014189658E+03   -0.75317E-04   -0.50993E-06  6816   0.624E-03    0.465E-03
DAV:   7    -0.612014181069E+03    0.85886E-05   -0.21451E-06  6480   0.434E-03
  14 F= -.61201418E+03 E0= -.61201418E+03  d E =-.440879E-02
 curvature:  -0.62 expect dE=-0.153E-02 dE for cont linesearch -0.129E-06
 trial: gam= 0.24095 g(F)=  0.173E-02 g(S)=  0.731E-03 ort =-0.478E-04 (trialstep = 0.976E+00)
 search vector abs. value=  0.308E-02
 bond charge predicted
       N       E                     dE             d eps       ncg     rms          rms(c)
DAV:   1    -0.612014600345E+03   -0.41069E-03   -0.54197E-01 13424   0.175E+00    0.413E-01
DAV:   2    -0.612017724597E+03   -0.31243E-02   -0.34676E-02 13416   0.447E-01    0.281E-01
DAV:   3    -0.612014373988E+03    0.33506E-02   -0.10165E-02 18048   0.228E-01    0.370E-01
DAV:   4    -0.612015030426E+03   -0.65644E-03   -0.58329E-03 15472   0.192E-01    0.189E-01
DAV:   5    -0.612015791404E+03   -0.76098E-03   -0.42566E-03 16088   0.161E-01    0.139E-01
DAV:   6    -0.612014393208E+03    0.13982E-02   -0.12611E-03 16664   0.844E-02    0.491E-02
DAV:   7    -0.612014719750E+03   -0.32654E-03   -0.24214E-04 17608   0.279E-02    0.482E-02
DAV:   8    -0.612014663048E+03    0.56701E-04   -0.33357E-05  8648   0.115E-02    0.382E-02
DAV:   9    -0.612014721602E+03   -0.58554E-04   -0.63144E-05  7176   0.972E-03    0.366E-02
DAV:  10    -0.612014703929E+03    0.17674E-04   -0.23280E-05  8960   0.129E-02    0.205E-02
DAV:  11    -0.612014680368E+03    0.23560E-04   -0.18862E-05  7360   0.106E-02    0.114E-02
DAV:  12    -0.612014685832E+03   -0.54632E-05   -0.87228E-06  6688   0.673E-03
  15 F= -.61201469E+03 E0= -.61201469E+03  d E =-.504762E-03
 trial-energy change:   -0.000505  1 .order   -0.001403   -0.002392   -0.000413
 step:   1.1797(harm=  1.1797)  dis= 0.00393  next Energy=  -612.015627 (dE=-0.145E-02)
 bond charge predicted
       N       E                     dE             d eps       ncg     rms          rms(c)
DAV:   1    -0.612014471706E+03    0.20866E-03   -0.23465E-02 13432   0.364E-01    0.847E-02
DAV:   2    -0.612014776884E+03   -0.30518E-03   -0.16461E-03 13656   0.938E-02    0.611E-02
DAV:   3    -0.612014805141E+03   -0.28257E-04   -0.91912E-04 16152   0.627E-02    0.882E-02
DAV:   4    -0.612014305482E+03    0.49966E-03   -0.50471E-04 14720   0.515E-02    0.503E-02
DAV:   5    -0.612014759948E+03   -0.45447E-03   -0.11611E-04 12160   0.264E-02    0.312E-02
DAV:   6    -0.612014354425E+03    0.40552E-03   -0.81014E-05 10856   0.195E-02    0.239E-02
DAV:   7    -0.612014545385E+03   -0.19096E-03   -0.45594E-05  8144   0.141E-02    0.141E-02
DAV:   8    -0.612014533687E+03    0.11698E-04   -0.55698E-06  6864   0.599E-03    0.110E-02
DAV:   9    -0.612014521256E+03    0.12432E-04   -0.11250E-05  6544   0.465E-03    0.157E-02
DAV:  10    -0.612014508712E+03    0.12544E-04   -0.18078E-05  6424   0.408E-03    0.107E-02
DAV:  11    -0.612014509096E+03   -0.38424E-06   -0.35854E-06  6352   0.384E-03
  16 F= -.61201451E+03 E0= -.61201451E+03  d E =-.328027E-03
 curvature:  -0.74 expect dE=-0.110E-02 dE for cont linesearch -0.398E-06
 trial: gam= 0.61487 g(F)=  0.106E-02 g(S)=  0.423E-03 ort =-0.407E-04 (trialstep = 0.102E+01)
 search vector abs. value=  0.260E-02
 bond charge predicted
       N       E                     dE             d eps       ncg     rms          rms(c)
DAV:   1    -0.612015220016E+03   -0.71130E-03   -0.44324E-01 12456   0.133E+00    0.245E-01
DAV:   2    -0.612014666915E+03    0.55310E-03   -0.17194E-02 14160   0.305E-01    0.191E-01
DAV:   3    -0.612017083993E+03   -0.24171E-02   -0.29143E-03 18040   0.132E-01    0.162E-01
DAV:   4    -0.612015128644E+03    0.19553E-02   -0.11075E-03 17048   0.791E-02    0.110E-01
DAV:   5    -0.612016275814E+03   -0.11472E-02   -0.20297E-03 16328   0.933E-02    0.175E-01
DAV:   6    -0.612015968128E+03    0.30769E-03   -0.25350E-03 16680   0.942E-02    0.626E-02
DAV:   7    -0.612015521271E+03    0.44686E-03   -0.23913E-04 16088   0.379E-02    0.254E-02
DAV:   8    -0.612015509430E+03    0.11841E-04   -0.28967E-05 10896   0.114E-02    0.208E-02
DAV:   9    -0.612015499483E+03    0.99470E-05   -0.45796E-06  6984   0.822E-03
  17 F= -.61201550E+03 E0= -.61201550E+03  d E =-.990387E-03
 trial-energy change:   -0.000990  1 .order   -0.001041   -0.001487   -0.000594
 step:   1.6921(harm=  1.6921)  dis= 0.00664  next Energy=  -612.015747 (dE=-0.124E-02)
 bond charge predicted
       N       E                     dE             d eps       ncg     rms          rms(c)
DAV:   1    -0.612015615618E+03   -0.10619E-03   -0.19585E-01 12352   0.888E-01    0.164E-01
DAV:   2    -0.612015170511E+03    0.44511E-03   -0.75994E-03 14144   0.202E-01    0.127E-01
DAV:   3    -0.612016611884E+03   -0.14414E-02   -0.13872E-03 18048   0.847E-02    0.107E-01
DAV:   4    -0.612015447177E+03    0.11647E-02   -0.57864E-04 16608   0.543E-02    0.824E-02
DAV:   5    -0.612015986830E+03   -0.53965E-03   -0.10549E-03 15816   0.636E-02    0.101E-01
DAV:   6    -0.612016028058E+03   -0.41228E-04   -0.55715E-04 15768   0.586E-02    0.405E-02
DAV:   7    -0.612015682143E+03    0.34591E-03   -0.96936E-05 12592   0.245E-02    0.171E-02
DAV:   8    -0.612015706924E+03   -0.24781E-04   -0.13438E-05  7664   0.948E-03    0.132E-02
DAV:   9    -0.612015698031E+03    0.88930E-05   -0.64710E-06  6904   0.817E-03
  18 F= -.61201570E+03 E0= -.61201570E+03  d E =-.118893E-02
 curvature:  -1.50 expect dE=-0.106E-02 dE for cont linesearch -0.433E-12
 trial: gam= 0.45556 g(F)=  0.604E-03 g(S)=  0.984E-04 ort =-0.274E-07 (trialstep = 0.115E+01)
 search vector abs. value=  0.124E-02
 bond charge predicted
       N       E                     dE             d eps       ncg     rms          rms(c)
DAV:   1    -0.612015661333E+03    0.45591E-04   -0.28573E-01 12304   0.112E+00    0.195E-01
DAV:   2    -0.612017363222E+03   -0.17019E-02   -0.14067E-02 14944   0.277E-01    0.169E-01
DAV:   3    -0.612016828532E+03    0.53469E-03   -0.44257E-03 16816   0.148E-01    0.201E-01
DAV:   4    -0.612016605520E+03    0.22301E-03   -0.11299E-03 16152   0.106E-01    0.883E-02
DAV:   5    -0.612016816602E+03   -0.21108E-03   -0.38657E-04 16808   0.567E-02    0.569E-02
DAV:   6    -0.612016194793E+03    0.62181E-03   -0.22244E-04 17264   0.394E-02    0.401E-02
DAV:   7    -0.612016719303E+03   -0.52451E-03   -0.60706E-05 13200   0.248E-02    0.196E-02
DAV:   8    -0.612016663021E+03    0.56283E-04   -0.12381E-05  7664   0.103E-02    0.123E-02
DAV:   9    -0.612016630414E+03    0.32607E-04   -0.86043E-06  6944   0.850E-03    0.120E-02
DAV:  10    -0.612016649200E+03   -0.18786E-04   -0.17756E-05  6976   0.890E-03    0.574E-03
DAV:  11    -0.612016635119E+03    0.14081E-04   -0.23755E-06  6608   0.481E-03    0.332E-03
DAV:  12    -0.612016634141E+03    0.97807E-06   -0.14693E-06  6448   0.332E-03
  19 F= -.61201663E+03 E0= -.61201663E+03  d E =-.936110E-03
 trial-energy change:   -0.000936  1 .order   -0.000324   -0.000809    0.000161
 step:   1.1108(harm=  0.9608)  dis= 0.00303  next Energy=  -612.016637 (dE=-0.939E-03)
 bond charge predicted
       N       E                     dE             d eps       ncg     rms          rms(c)
DAV:   1    -0.612016630166E+03    0.49524E-05   -0.36710E-04 11640   0.401E-02    0.731E-03
DAV:   2    -0.612016595283E+03    0.34884E-04   -0.15215E-05  8232   0.103E-02    0.711E-03
DAV:   3    -0.612016641009E+03   -0.45726E-04   -0.29996E-06  6496   0.687E-03    0.597E-03
DAV:   4    -0.612016616590E+03    0.24419E-04   -0.29132E-06  6384   0.476E-03    0.473E-03
DAV:   5    -0.612016600463E+03    0.16128E-04   -0.13211E-06  6304   0.339E-03    0.255E-03
DAV:   6    -0.612016630173E+03   -0.29711E-04   -0.42731E-07  6216   0.198E-03    0.198E-03
DAV:   7    -0.612016610316E+03    0.19858E-04   -0.27194E-07  6184   0.163E-03    0.124E-03
DAV:   8    -0.612016614758E+03   -0.44427E-05   -0.14212E-07  6176   0.114E-03
  20 F= -.61201661E+03 E0= -.61201661E+03  d E =-.916728E-03
 curvature:  -0.33 expect dE=-0.572E-04 dE for cont linesearch -0.357E-05
 ZBRENT: interpolating
 opt :   0.9525  next Energy=  -612.016624 (dE=-0.926E-03)
 bond charge predicted
       N       E                     dE             d eps       ncg     rms          rms(c)
DAV:   1    -0.612016571486E+03    0.38829E-04   -0.53956E-03 12264   0.154E-01    0.266E-02
DAV:   2    -0.612016502927E+03    0.68560E-04   -0.26346E-04 14912   0.378E-02    0.210E-02
DAV:   3    -0.612016621114E+03   -0.11819E-03   -0.49620E-05  9896   0.191E-02    0.286E-02
DAV:   4    -0.612016532955E+03    0.88159E-04   -0.34122E-05  8168   0.154E-02    0.123E-02
DAV:   5    -0.612016547741E+03   -0.14786E-04   -0.65650E-06  7520   0.799E-03    0.903E-03
DAV:   6    -0.612016552189E+03   -0.44481E-05   -0.56667E-06  6840   0.676E-03
  21 F= -.61201655E+03 E0= -.61201655E+03  d E =-.854159E-03
 curvature:  -0.84 expect dE=-0.102E-03 dE for cont linesearch -0.760E-06
 trial: gam= 0.19522 g(F)=  0.113E-03 g(S)=  0.810E-05 ort =-0.335E-04 (trialstep = 0.111E+01)
 search vector abs. value=  0.156E-03
 reached required accuracy - stopping structural energy minimisation
 writing wavefunctions
