 running on   40 total cores
 distrk:  each k-point on   40 cores,    1 groups
 distr:  one band on   10 cores,    4 groups
 using from now: INCAR     
 vasp.5.4.4.18Apr17-6-g9f103f2a35 (build Oct 23 2017 21:22:35) complex          
  
 POSCAR found :  4 types and      10 ions
 scaLAPACK will be used
 LDA part: xc-table for Pade appr. of Perdew
 POSCAR, INCAR and KPOINTS ok, starting setup
 FFT: planning ...
 WAVECAR not read
 entering main loop
       N       E                     dE             d eps       ncg     rms          rms(c)
DAV:   1     0.933049425930E+03    0.93305E+03   -0.42243E+04  1536   0.174E+03
DAV:   2     0.215612638955E+02   -0.91149E+03   -0.87850E+03  1824   0.549E+02
DAV:   3    -0.897311109060E+02   -0.11129E+03   -0.11034E+03  2120   0.181E+02
DAV:   4    -0.971390780411E+02   -0.74080E+01   -0.73869E+01  2608   0.465E+01
DAV:   5    -0.974449805109E+02   -0.30590E+00   -0.30573E+00  2176   0.666E+00    0.333E+01
DAV:   6    -0.810588442699E+02    0.16386E+02   -0.10111E+02  2200   0.609E+01    0.212E+01
DAV:   7    -0.812996650355E+02   -0.24082E+00   -0.16176E+01  2296   0.228E+01    0.137E+01
DAV:   8    -0.812020417857E+02    0.97623E-01   -0.42872E+00  2320   0.122E+01    0.699E+00
DAV:   9    -0.811437967815E+02    0.58245E-01   -0.75429E-01  2216   0.510E+00    0.102E+00
DAV:  10    -0.811398959559E+02    0.39008E-02   -0.11472E-01  2472   0.164E+00    0.563E-01
DAV:  11    -0.811416600524E+02   -0.17641E-02   -0.15878E-02  2224   0.925E-01    0.211E-01
DAV:  12    -0.811413921212E+02    0.26793E-03   -0.36052E-03  2192   0.477E-01    0.109E-01
DAV:  13    -0.811414123920E+02   -0.20271E-04   -0.65082E-04  2312   0.149E-01    0.298E-02
DAV:  14    -0.811414197706E+02   -0.73786E-05   -0.79501E-05  2024   0.522E-02
   1 F= -.81141420E+02 E0= -.81141420E+02  d E =-.811414E+02
 curvature:   0.00 expect dE= 0.000E+00 dE for cont linesearch  0.000E+00
 trial: gam= 0.00000 g(F)=  0.969E-01 g(S)=  0.720E+00 ort = 0.000E+00 (trialstep = 0.100E+01)
 search vector abs. value=  0.817E+00
 bond charge predicted
       N       E                     dE             d eps       ncg     rms          rms(c)
DAV:   1    -0.858792115181E+02   -0.47378E+01   -0.18072E+02  1840   0.952E+01    0.186E+01
DAV:   2    -0.824185411076E+02    0.34607E+01   -0.25889E+01  2176   0.320E+01    0.801E+00
DAV:   3    -0.813617581994E+02    0.10568E+01   -0.85310E+00  2376   0.152E+01    0.580E+00
DAV:   4    -0.809945307028E+02    0.36723E+00   -0.33685E+00  2328   0.100E+01    0.368E+00
DAV:   5    -0.810074016118E+02   -0.12871E-01   -0.33739E-01  2376   0.335E+00    0.273E+00
DAV:   6    -0.810438067325E+02   -0.36405E-01   -0.10757E-01  2768   0.130E+00    0.162E+00
DAV:   7    -0.810577843571E+02   -0.13978E-01   -0.10498E-01  2472   0.131E+00    0.485E-01
DAV:   8    -0.810560085810E+02    0.17758E-02   -0.16179E-02  2384   0.609E-01    0.280E-01
DAV:   9    -0.810564996138E+02   -0.49103E-03   -0.11839E-03  2256   0.197E-01    0.103E-01
DAV:  10    -0.810566067377E+02   -0.10712E-03   -0.36941E-04  2248   0.125E-01    0.405E-02
DAV:  11    -0.810566046688E+02    0.20689E-05   -0.63366E-05  2072   0.402E-02
   2 F= -.81056605E+02 E0= -.81056605E+02  d E =0.848151E-01
 trial-energy change:    0.084815  1 .order    0.042182   -0.817033    0.901396
 step:   0.4388(harm=  0.4755)  dis= 0.01225  next Energy=   -81.317073 (dE=-0.176E+00)
 bond charge predicted
       N       E                     dE             d eps       ncg     rms          rms(c)
DAV:   1    -0.829372680792E+02   -0.18807E+01   -0.58035E+01  1816   0.524E+01    0.108E+01
DAV:   2    -0.816090278874E+02    0.13282E+01   -0.61622E+00  1984   0.154E+01    0.397E+00
DAV:   3    -0.813627451307E+02    0.24628E+00   -0.19672E+00  2240   0.745E+00    0.213E+00
DAV:   4    -0.812877314442E+02    0.75014E-01   -0.64225E-01  2608   0.460E+00    0.109E+00
DAV:   5    -0.812968083779E+02   -0.90769E-02   -0.73628E-02  2392   0.133E+00    0.828E-01
DAV:   6    -0.813059500658E+02   -0.91417E-02   -0.15366E-02  2816   0.430E-01    0.624E-01
DAV:   7    -0.813131237953E+02   -0.71737E-02   -0.14866E-02  2248   0.562E-01    0.137E-01
DAV:   8    -0.813132709853E+02   -0.14719E-03   -0.43302E-03  2464   0.245E-01    0.558E-02
DAV:   9    -0.813133466053E+02   -0.75620E-04   -0.32182E-04  2296   0.779E-02    0.240E-02
DAV:  10    -0.813133496665E+02   -0.30612E-05   -0.30708E-05  1688   0.249E-02
   3 F= -.81313350E+02 E0= -.81313350E+02  d E =-.171930E+00
 curvature:  -0.24 expect dE=-0.714E-03 dE for cont linesearch -0.479E-04
 ZBRENT: interpolating
 opt :   0.4320  next Energy=   -81.313393 (dE=-0.172E+00)
 bond charge predicted
       N       E                     dE             d eps       ncg     rms          rms(c)
DAV:   1    -0.813136158727E+02   -0.26927E-03   -0.84226E-03  1872   0.643E-01    0.127E-01
DAV:   2    -0.813134304480E+02    0.18542E-03   -0.94846E-04  2080   0.198E-01    0.512E-02
DAV:   3    -0.813133944999E+02    0.35948E-04   -0.34896E-04  2208   0.992E-02    0.319E-02
DAV:   4    -0.813133786564E+02    0.15843E-04   -0.11910E-04  1992   0.645E-02    0.163E-02
DAV:   5    -0.813133805990E+02   -0.19426E-05   -0.12523E-05  1368   0.201E-02
   4 F= -.81313381E+02 E0= -.81313381E+02  d E =-.171961E+00
 curvature:  -0.22 expect dE=-0.607E-03 dE for cont linesearch -0.560E-06
 ZBRENT: interpolating
 opt :   0.4311  next Energy=   -81.313381 (dE=-0.172E+00)
 bond charge predicted
       N       E                     dE             d eps       ncg     rms          rms(c)
DAV:   1    -0.813133843013E+02   -0.56449E-05   -0.13676E-04  1984   0.813E-02    0.162E-02
DAV:   2    -0.813133823660E+02    0.19352E-05   -0.11226E-05  1008   0.235E-02
   5 F= -.81313382E+02 E0= -.81313382E+02  d E =-.171963E+00
 curvature:  -0.24 expect dE=-0.645E-03 dE for cont linesearch -0.315E-05
 ZBRENT: bisectioning
 opt :   0.2156  next Energy=   -81.362231 (dE=-0.221E+00)
 bond charge predicted
       N       E                     dE             d eps       ncg     rms          rms(c)
DAV:   1    -0.815074100585E+02   -0.19403E+00   -0.86219E+00  1832   0.205E+01    0.413E+00
DAV:   2    -0.813186930086E+02    0.18872E+00   -0.95469E-01  2008   0.612E+00    0.159E+00
DAV:   3    -0.812805631653E+02    0.38130E-01   -0.30521E-01  2272   0.297E+00    0.894E-01
DAV:   4    -0.812679034708E+02    0.12660E-01   -0.10676E-01  2624   0.188E+00    0.488E-01
DAV:   5    -0.812692521731E+02   -0.13487E-02   -0.10989E-02  2408   0.514E-01    0.393E-01
DAV:   6    -0.812706991712E+02   -0.14470E-02   -0.21652E-03  2800   0.169E-01    0.278E-01
DAV:   7    -0.812718248279E+02   -0.11257E-02   -0.26392E-03  2488   0.223E-01    0.495E-02
DAV:   8    -0.812718272283E+02   -0.24004E-05   -0.44642E-04  2240   0.912E-02    0.278E-02
DAV:   9    -0.812718455013E+02   -0.18273E-04   -0.29896E-05  1824   0.302E-02    0.641E-03
DAV:  10    -0.812718472793E+02   -0.17780E-05   -0.44870E-06  1032   0.123E-02
   6 F= -.81271847E+02 E0= -.81271847E+02  d E =-.130428E+00
 curvature: ****** expect dE=-0.712E+03 dE for cont linesearch -0.706E+03
 ZBRENT: interpolating
 opt :   0.4294  next Energy=   -81.313385 (dE=-0.172E+00)
 bond charge predicted
       N       E                     dE             d eps       ncg     rms          rms(c)
DAV:   1    -0.815419989615E+02   -0.27015E+00   -0.84348E+00  1816   0.204E+01    0.398E+00
DAV:   2    -0.813643022220E+02    0.17770E+00   -0.10138E+00  2008   0.621E+00    0.159E+00
DAV:   3    -0.813267434345E+02    0.37559E-01   -0.34536E-01  2288   0.309E+00    0.104E+00
DAV:   4    -0.813100985104E+02    0.16645E-01   -0.12521E-01  2560   0.204E+00    0.569E-01
DAV:   5    -0.813111456952E+02   -0.10472E-02   -0.11777E-02  2360   0.551E-01    0.454E-01
DAV:   6    -0.813125395352E+02   -0.13938E-02   -0.27919E-03  2808   0.204E-01    0.302E-01
DAV:   7    -0.813133714024E+02   -0.83187E-03   -0.32313E-03  2456   0.235E-01    0.640E-02
DAV:   8    -0.813133449797E+02    0.26423E-04   -0.56591E-04  2120   0.108E-01    0.380E-02
DAV:   9    -0.813133552321E+02   -0.10252E-04   -0.41236E-05  1880   0.394E-02    0.845E-03
DAV:  10    -0.813133544163E+02    0.81590E-06   -0.62039E-06  1088   0.160E-02
   7 F= -.81313354E+02 E0= -.81313354E+02  d E =-.171935E+00
 curvature:  -0.00 expect dE=-0.441E-07 dE for cont linesearch -0.270E-09
 ZBRENT: interpolating
 opt :   0.4303  next Energy=   -81.313384 (dE=-0.172E+00)
 bond charge predicted
       N       E                     dE             d eps       ncg     rms          rms(c)
DAV:   1    -0.813133654403E+02   -0.10208E-04   -0.17879E-04  2048   0.924E-02    0.186E-02
DAV:   2    -0.813133606970E+02    0.47433E-05   -0.15583E-05  1104   0.292E-02
   8 F= -.81313361E+02 E0= -.81313361E+02  d E =-.171941E+00
 curvature:  -0.08 expect dE=-0.246E-03 dE for cont linesearch -0.653E-05
 ZBRENT: interpolating
 opt :   0.4309  next Energy=   -81.313383 (dE=-0.172E+00)
 bond charge predicted
       N       E                     dE             d eps       ncg     rms          rms(c)
DAV:   1    -0.813133649367E+02    0.50365E-06   -0.51140E-05  1592   0.564E-02    0.129E-02
DAV:   2    -0.813133627445E+02    0.21922E-05   -0.16239E-05  1032   0.290E-02
   9 F= -.81313363E+02 E0= -.81313363E+02  d E =-.171943E+00
 curvature:  -0.00 expect dE=-0.139E-04 dE for cont linesearch -0.153E-06
 ZBRENT: interpolating
 opt :   0.4310  next Energy=   -81.313383 (dE=-0.172E+00)
 bond charge predicted
       N       E                     dE             d eps       ncg     rms          rms(c)
DAV:   1    -0.813133627666E+02    0.21701E-05   -0.72847E-06   992   0.211E-02    0.542E-03
DAV:   2    -0.813133621483E+02    0.61828E-06   -0.21500E-06   952   0.110E-02
  10 F= -.81313362E+02 E0= -.81313362E+02  d E =-.171942E+00
 curvature:  -0.00 expect dE=-0.125E-04 dE for cont linesearch -0.557E-07
 ZBRENT: interpolating
 opt :   0.4311  next Energy=   -81.313382 (dE=-0.172E+00)
 bond charge predicted
       N       E                     dE             d eps       ncg     rms          rms(c)
DAV:   1    -0.813133621568E+02    0.60974E-06   -0.11448E-06   944   0.853E-03    0.229E-03
DAV:   2    -0.813133619644E+02    0.19239E-06   -0.62859E-07   944   0.567E-03
  11 F= -.81313362E+02 E0= -.81313362E+02  d E =-.171942E+00
 curvature:  -0.01 expect dE=-0.151E-04 dE for cont linesearch -0.373E-07
 ZBRENT: interpolating
 opt :   0.4311  next Energy=   -81.313362 (dE=-0.172E+00)
 bond charge predicted
       N       E                     dE             d eps       ncg     rms          rms(c)
DAV:   1    -0.813133619629E+02    0.19397E-06   -0.31900E-07   928   0.462E-03    0.122E-03
DAV:   2    -0.813133618588E+02    0.10406E-06   -0.16581E-07   912   0.273E-03
  12 F= -.81313362E+02 E0= -.81313362E+02  d E =-.171942E+00
 curvature:  -0.00 expect dE=-0.909E-05 dE for cont linesearch -0.183E-07
 ZBRENT: bisectioning
 opt :   0.4311  next Energy=   -81.313362 (dE=-0.172E+00)
 bond charge predicted
       N       E                     dE             d eps       ncg     rms          rms(c)
DAV:   1    -0.813133618566E+02    0.10631E-06   -0.12660E-07   912   0.293E-03    0.779E-04
DAV:   2    -0.813133617842E+02    0.72351E-07   -0.85120E-08   912   0.180E-03
  13 F= -.81313362E+02 E0= -.81313362E+02  d E =-.171942E+00
 curvature:  -0.00 expect dE=-0.128E-04 dE for cont linesearch -0.236E-07
 ZBRENT: bisectioning
 opt :   0.4311  next Energy=   -81.313362 (dE=-0.172E+00)
 bond charge predicted
       N       E                     dE             d eps       ncg     rms          rms(c)
DAV:   1    -0.813133617751E+02    0.81442E-07   -0.65553E-08   912   0.197E-03    0.532E-04
DAV:   2    -0.813133617213E+02    0.53834E-07   -0.46731E-08   912   0.126E-03
  14 F= -.81313362E+02 E0= -.81313362E+02  d E =-.171942E+00
 curvature:  -0.00 expect dE=-0.688E-05 dE for cont linesearch -0.120E-07
 ZBRENT: bisectioning
 opt :   0.4311  next Energy=   -81.313362 (dE=-0.172E+00)
 bond charge predicted
       N       E                     dE             d eps       ncg     rms          rms(c)
DAV:   1    -0.813133617080E+02    0.67163E-07   -0.34349E-08   912   0.136E-03    0.381E-04
DAV:   2    -0.813133616694E+02    0.38543E-07   -0.24459E-08   904   0.886E-04
  15 F= -.81313362E+02 E0= -.81313362E+02  d E =-.171942E+00
 curvature:  -0.00 expect dE=-0.355E-05 dE for cont linesearch -0.592E-08
 ZBRENT: bisectioning
 opt :   0.4311  next Energy=   -81.313362 (dE=-0.172E+00)
 bond charge predicted
       N       E                     dE             d eps       ncg     rms          rms(c)
DAV:   1    -0.813133616537E+02    0.54259E-07   -0.17616E-08   912   0.940E-04    0.257E-04
DAV:   2    -0.813133616272E+02    0.26468E-07   -0.12310E-08   896   0.628E-04
  16 F= -.81313362E+02 E0= -.81313362E+02  d E =-.171942E+00
 curvature:  -0.00 expect dE=-0.182E-05 dE for cont linesearch -0.293E-08
 ZBRENT: bisectioning
 opt :   0.4311  next Energy=   -81.313362 (dE=-0.172E+00)
 bond charge predicted
       N       E                     dE             d eps       ncg     rms          rms(c)
DAV:   1    -0.813133616146E+02    0.39116E-07   -0.87911E-09   912   0.647E-04    0.174E-04
DAV:   2    -0.813133615983E+02    0.16245E-07   -0.61071E-09   912   0.442E-04
  17 F= -.81313362E+02 E0= -.81313362E+02  d E =-.171942E+00
 curvature:  -0.00 expect dE=-0.926E-06 dE for cont linesearch -0.147E-08
 ZBRENT: bisectioning
 opt :   0.4311  next Energy=   -81.313362 (dE=-0.172E+00)
 bond charge predicted
       N       E                     dE             d eps       ncg     rms          rms(c)
DAV:   1    -0.813133615895E+02    0.25130E-07   -0.43760E-09   912   0.444E-04    0.116E-04
DAV:   2    -0.813133615790E+02    0.10492E-07   -0.30658E-09   912   0.313E-04
  18 F= -.81313362E+02 E0= -.81313362E+02  d E =-.171942E+00
 curvature:  -0.00 expect dE=-0.468E-06 dE for cont linesearch -0.734E-09
 ZBRENT: bisectioning
 opt :   0.4311  next Energy=   -81.313362 (dE=-0.172E+00)
 bond charge predicted
       N       E                     dE             d eps       ncg     rms          rms(c)
DAV:   1    -0.813133615728E+02    0.16676E-07   -0.22174E-09   912   0.305E-04    0.785E-05
DAV:   2    -0.813133615662E+02    0.65838E-08   -0.15758E-09   912   0.222E-04
  19 F= -.81313362E+02 E0= -.81313362E+02  d E =-.171942E+00
 curvature:  -0.00 expect dE=-0.236E-06 dE for cont linesearch -0.367E-09
 ZBRENT:  can not reach accuracy
 opt :   0.0000  next Energy=     0.000000 (dE= 0.811E+02)
 bond charge predicted
       N       E                     dE             d eps       ncg     rms          rms(c)
DAV:   1    -0.820928146467E+02   -0.77945E+00   -0.34769E+01  1808   0.413E+01    0.854E+00
DAV:   2    -0.813251218882E+02    0.76769E+00   -0.36746E+00  1976   0.121E+01    0.322E+00
DAV:   3    -0.811663848676E+02    0.15874E+00   -0.11038E+00  2232   0.580E+00    0.161E+00
DAV:   4    -0.811285606154E+02    0.37824E-01   -0.37409E-01  2640   0.356E+00    0.926E-01
DAV:   5    -0.811337794039E+02   -0.52188E-02   -0.38221E-02  2352   0.102E+00    0.698E-01
DAV:   6    -0.811396488674E+02   -0.58695E-02   -0.96235E-03  2760   0.341E-01    0.503E-01
DAV:   7    -0.811437926931E+02   -0.41438E-02   -0.90171E-03  2448   0.427E-01    0.103E-01
DAV:   8    -0.811438451085E+02   -0.52415E-04   -0.18750E-03  2296   0.175E-01    0.489E-02
DAV:   9    -0.811438994909E+02   -0.54382E-04   -0.16061E-04  2384   0.587E-02    0.190E-02
DAV:  10    -0.811439019164E+02   -0.24255E-05   -0.14292E-05  1336   0.180E-02
  20 F= -.81143902E+02 E0= -.81143902E+02  d E =-.248215E-02
 curvature:   0.00 expect dE= 0.000E+00 dE for cont linesearch  0.000E+00
 ZBRENT: fatal error in bracketing
     please rerun with smaller EDIFF, or copy CONTCAR
     to POSCAR and continue
