       N       E                     dE             d eps       ncg     rms          rms(c)
DAV:   1     0.130203698258E+04    0.13020E+04   -0.64216E+04  5320   0.163E+03
DAV:   2     0.137525775991E+02   -0.12883E+04   -0.12380E+04  6456   0.519E+02
DAV:   3    -0.133950261791E+03   -0.14770E+03   -0.14555E+03  7104   0.173E+02
DAV:   4    -0.145446031634E+03   -0.11496E+02   -0.11425E+02  9392   0.474E+01
DAV:   5    -0.145957084372E+03   -0.51105E+00   -0.50786E+00  8216   0.731E+00    0.372E+01
DAV:   6    -0.122987194211E+03    0.22970E+02   -0.13607E+02  7528   0.518E+01    0.241E+01
DAV:   7    -0.123865805253E+03   -0.87861E+00   -0.45565E+01  7888   0.291E+01    0.169E+01
DAV:   8    -0.122296463263E+03    0.15693E+01   -0.40190E+00  8440   0.120E+01    0.980E+00
DAV:   9    -0.122953325158E+03   -0.65686E+00   -0.32796E+00  8528   0.819E+00    0.715E+00
DAV:  10    -0.122345768367E+03    0.60756E+00   -0.58107E+00  7492   0.113E+01    0.164E+00
DAV:  11    -0.122305653540E+03    0.40115E-01   -0.30701E-01  7696   0.276E+00    0.890E-01
DAV:  12    -0.122316339119E+03   -0.10686E-01   -0.16482E-01  7628   0.174E+00    0.867E-01
DAV:  13    -0.122304555005E+03    0.11784E-01   -0.36536E-02  7192   0.100E+00    0.111E-01
DAV:  14    -0.122304971060E+03   -0.41606E-03   -0.33821E-03  8588   0.207E-01    0.895E-02
DAV:  15    -0.122304889842E+03    0.81218E-04   -0.43648E-04  7968   0.923E-02    0.335E-02
DAV:  16    -0.122304817151E+03    0.72691E-04   -0.58935E-05  6696   0.327E-02    0.181E-02
DAV:  17    -0.122304883466E+03   -0.66314E-04   -0.28117E-05  4528   0.262E-02    0.959E-03
DAV:  18    -0.122304868288E+03    0.15177E-04   -0.47286E-06  3824   0.135E-02    0.544E-03
DAV:  19    -0.122304877396E+03   -0.91073E-05   -0.22648E-06  3720   0.859E-03
   1 F= -.12230488E+03 E0= -.12230488E+03  d E =0.000000E+00
