  10  10   0   0
  0.1282480E+02  0.5656182E-09  0.5656182E-09  0.4008703E-09  0.5000000E-15
  1.000000000000000E-004
  CAR 
 unknown system                          
     14.50094638    -54.64929529  301      6.94087610      1.00000000
    -54.649  0.0000E+00  0.0000E+00
    -54.419  0.0000E+00  0.0000E+00
    -54.188  0.0000E+00  0.0000E+00
    -53.958  0.0000E+00  0.0000E+00
    -53.727  0.0000E+00  0.0000E+00
    -53.497  0.0000E+00  0.0000E+00
    -53.266  0.0000E+00  0.0000E+00
    -53.036  0.0000E+00  0.0000E+00
    -52.805  0.0000E+00  0.0000E+00
    -52.575  0.0000E+00  0.0000E+00
    -52.344  0.0000E+00  0.0000E+00
    -52.114  0.0000E+00  0.0000E+00
    -51.883  0.0000E+00  0.0000E+00
    -51.653  0.0000E+00  0.0000E+00
    -51.422  0.0000E+00  0.2000E+01
    -51.192  0.0000E+00  0.2000E+01
    -50.961  0.0000E+00  0.2000E+01
    -50.731  0.0000E+00  0.2000E+01
    -50.500  0.0000E+00  0.2000E+01
    -50.270  0.0000E+00  0.2000E+01
    -50.039  0.0000E+00  0.2000E+01
    -49.809  0.0000E+00  0.4000E+01
    -49.578  0.0000E+00  0.4000E+01
    -49.348  0.0000E+00  0.4000E+01
    -49.117  0.0000E+00  0.4000E+01
    -48.887  0.0000E+00  0.4000E+01
    -48.656  0.0000E+00  0.4000E+01
    -48.426  0.0000E+00  0.4000E+01
    -48.195  0.0000E+00  0.4000E+01
    -47.965  0.0000E+00  0.4000E+01
    -47.734  0.0000E+00  0.4000E+01
    -47.504  0.0000E+00  0.4000E+01
    -47.273  0.0000E+00  0.4000E+01
    -47.043  0.0000E+00  0.4000E+01
    -46.812  0.0000E+00  0.4000E+01
    -46.582  0.0000E+00  0.4000E+01
    -46.351  0.0000E+00  0.4000E+01
    -46.121  0.0000E+00  0.4000E+01
    -45.890  0.0000E+00  0.4000E+01
    -45.660  0.0000E+00  0.4000E+01
    -45.429  0.0000E+00  0.4000E+01
    -45.199  0.0000E+00  0.4000E+01
    -44.968  0.0000E+00  0.4000E+01
    -44.738  0.0000E+00  0.4000E+01
    -44.507  0.0000E+00  0.4000E+01
    -44.277  0.0000E+00  0.4000E+01
    -44.046  0.0000E+00  0.4000E+01
    -43.816  0.0000E+00  0.4000E+01
    -43.585  0.0000E+00  0.4000E+01
    -43.355  0.0000E+00  0.4000E+01
    -43.124  0.0000E+00  0.4000E+01
    -42.894  0.0000E+00  0.4000E+01
    -42.663  0.0000E+00  0.4000E+01
    -42.433  0.0000E+00  0.4000E+01
    -42.202  0.0000E+00  0.4000E+01
    -41.972  0.0000E+00  0.4000E+01
    -41.741  0.0000E+00  0.4000E+01
    -41.511  0.0000E+00  0.4000E+01
    -41.280  0.0000E+00  0.4000E+01
    -41.050  0.0000E+00  0.4000E+01
    -40.819  0.0000E+00  0.4000E+01
    -40.589  0.0000E+00  0.4000E+01
    -40.358  0.0000E+00  0.4000E+01
    -40.128  0.0000E+00  0.4000E+01
    -39.897  0.0000E+00  0.4000E+01
    -39.667  0.0000E+00  0.4000E+01
    -39.436  0.0000E+00  0.4000E+01
    -39.206  0.0000E+00  0.4000E+01
    -38.975  0.0000E+00  0.4000E+01
    -38.745  0.0000E+00  0.4000E+01
    -38.514  0.0000E+00  0.4000E+01
    -38.284  0.0000E+00  0.4000E+01
    -38.053  0.0000E+00  0.4000E+01
    -37.823  0.0000E+00  0.4000E+01
    -37.592  0.0000E+00  0.4000E+01
    -37.362  0.0000E+00  0.4000E+01
    -37.131  0.0000E+00  0.4000E+01
    -36.901  0.0000E+00  0.4000E+01
    -36.670  0.0000E+00  0.4000E+01
    -36.440  0.0000E+00  0.4000E+01
    -36.209  0.0000E+00  0.4000E+01
    -35.979  0.0000E+00  0.4000E+01
    -35.748  0.0000E+00  0.4000E+01
    -35.518  0.0000E+00  0.4000E+01
    -35.287  0.0000E+00  0.4000E+01
    -35.057  0.0000E+00  0.4000E+01
    -34.826  0.0000E+00  0.4000E+01
    -34.596  0.0000E+00  0.4000E+01
    -34.365  0.0000E+00  0.4000E+01
    -34.135  0.0000E+00  0.4000E+01
    -33.904  0.0000E+00  0.4000E+01
    -33.674  0.0000E+00  0.4000E+01
    -33.443  0.0000E+00  0.4000E+01
    -33.213  0.0000E+00  0.4000E+01
    -32.982  0.0000E+00  0.4000E+01
    -32.752  0.0000E+00  0.4000E+01
    -32.521  0.0000E+00  0.4000E+01
    -32.291  0.0000E+00  0.4000E+01
    -32.060  0.0000E+00  0.4000E+01
    -31.830  0.0000E+00  0.4000E+01
    -31.599  0.0000E+00  0.4000E+01
    -31.369  0.0000E+00  0.4000E+01
    -31.138  0.0000E+00  0.4000E+01
    -30.908  0.0000E+00  0.4000E+01
    -30.677  0.0000E+00  0.4000E+01
    -30.447  0.0000E+00  0.4000E+01
    -30.216  0.0000E+00  0.4000E+01
    -29.986  0.0000E+00  0.4000E+01
    -29.755  0.0000E+00  0.4000E+01
    -29.525  0.0000E+00  0.4000E+01
    -29.294  0.0000E+00  0.4000E+01
    -29.064  0.0000E+00  0.4000E+01
    -28.833  0.0000E+00  0.8000E+01
    -28.603  0.0000E+00  0.8000E+01
    -28.372  0.0000E+00  0.8000E+01
    -28.142  0.0000E+00  0.8000E+01
    -27.911  0.0000E+00  0.8000E+01
    -27.681  0.0000E+00  0.1400E+02
    -27.450  0.0000E+00  0.1400E+02
    -27.220  0.0000E+00  0.1400E+02
    -26.989  0.0000E+00  0.1400E+02
    -26.759  0.0000E+00  0.1400E+02
    -26.528  0.0000E+00  0.1400E+02
    -26.298  0.8988E+01  0.1479E+02
    -26.067  0.0000E+00  0.2000E+02
    -25.837  0.0000E+00  0.2000E+02
    -25.606  0.0000E+00  0.2000E+02
    -25.376  0.0000E+00  0.2000E+02
    -25.145  0.0000E+00  0.2000E+02
    -24.915  0.0000E+00  0.2000E+02
    -24.684  0.0000E+00  0.2000E+02
    -24.454  0.0000E+00  0.2000E+02
    -24.223  0.0000E+00  0.2000E+02
    -23.993  0.0000E+00  0.2000E+02
    -23.762  0.0000E+00  0.2000E+02
    -23.532  0.0000E+00  0.2000E+02
    -23.301  0.0000E+00  0.2000E+02
    -23.071  0.0000E+00  0.2000E+02
    -22.840  0.0000E+00  0.2000E+02
    -22.610  0.0000E+00  0.2000E+02
    -22.379  0.0000E+00  0.2000E+02
    -22.149  0.0000E+00  0.2000E+02
    -21.918  0.0000E+00  0.2000E+02
    -21.688  0.0000E+00  0.2000E+02
    -21.457  0.0000E+00  0.2000E+02
    -21.227  0.0000E+00  0.2000E+02
    -20.996  0.0000E+00  0.2000E+02
    -20.766  0.0000E+00  0.2000E+02
    -20.535  0.0000E+00  0.2000E+02
    -20.305  0.0000E+00  0.2000E+02
    -20.074  0.0000E+00  0.2000E+02
    -19.844  0.0000E+00  0.2000E+02
    -19.613  0.0000E+00  0.2000E+02
    -19.383  0.0000E+00  0.2000E+02
    -19.152  0.0000E+00  0.2000E+02
    -18.922  0.0000E+00  0.2000E+02
    -18.691  0.0000E+00  0.2000E+02
    -18.461  0.0000E+00  0.2000E+02
    -18.230  0.0000E+00  0.2000E+02
    -18.000  0.0000E+00  0.2000E+02
    -17.769  0.0000E+00  0.2000E+02
    -17.539  0.0000E+00  0.2000E+02
    -17.308  0.0000E+00  0.2000E+02
    -17.078  0.0000E+00  0.2000E+02
    -16.847  0.0000E+00  0.2000E+02
    -16.617  0.0000E+00  0.2000E+02
    -16.386  0.0000E+00  0.2000E+02
    -16.156  0.0000E+00  0.2000E+02
    -15.925  0.0000E+00  0.2000E+02
    -15.695  0.0000E+00  0.2000E+02
    -15.464  0.0000E+00  0.2000E+02
    -15.234  0.0000E+00  0.2000E+02
    -15.003  0.0000E+00  0.2000E+02
    -14.773  0.0000E+00  0.2000E+02
    -14.542  0.0000E+00  0.2000E+02
    -14.312  0.0000E+00  0.2000E+02
    -14.081  0.0000E+00  0.2000E+02
    -13.851  0.0000E+00  0.2000E+02
    -13.620  0.2117E+00  0.2000E+02
    -13.390  0.2969E+01  0.2038E+02
    -13.159  0.4528E+01  0.2111E+02
    -12.929  0.6242E+01  0.2212E+02
    -12.698  0.2294E+01  0.2327E+02
    -12.468  0.1093E+02  0.2500E+02
    -12.237  0.1111E+02  0.2695E+02
    -12.007  0.7602E+01  0.2947E+02
    -11.776  0.8763E+01  0.3149E+02
    -11.546  0.3347E+00  0.3199E+02
    -11.315  0.0000E+00  0.3200E+02
    -11.085  0.3888E+01  0.3210E+02
    -10.854  0.2374E+02  0.3693E+02
    -10.624  0.1996E+02  0.4140E+02
    -10.393  0.3689E+01  0.4397E+02
    -10.163  0.0000E+00  0.4400E+02
     -9.932  0.0000E+00  0.4400E+02
     -9.702  0.0000E+00  0.4400E+02
     -9.471  0.0000E+00  0.4400E+02
     -9.241  0.0000E+00  0.4400E+02
     -9.010  0.0000E+00  0.4400E+02
     -8.780  0.0000E+00  0.4400E+02
     -8.549  0.0000E+00  0.4400E+02
     -8.319  0.0000E+00  0.4400E+02
     -8.088  0.0000E+00  0.4400E+02
     -7.858  0.0000E+00  0.4400E+02
     -7.627  0.0000E+00  0.4400E+02
     -7.397  0.0000E+00  0.4400E+02
     -7.166  0.0000E+00  0.4400E+02
     -6.936  0.0000E+00  0.4400E+02
     -6.705  0.0000E+00  0.4400E+02
     -6.475  0.0000E+00  0.4400E+02
     -6.244  0.0000E+00  0.4400E+02
     -6.014  0.0000E+00  0.4400E+02
     -5.783  0.0000E+00  0.4400E+02
     -5.553  0.0000E+00  0.4400E+02
     -5.322  0.0000E+00  0.4400E+02
     -5.092  0.0000E+00  0.4400E+02
     -4.861  0.0000E+00  0.4400E+02
     -4.631  0.0000E+00  0.4400E+02
     -4.400  0.0000E+00  0.4400E+02
     -4.170  0.0000E+00  0.4400E+02
     -3.939  0.0000E+00  0.4400E+02
     -3.709  0.0000E+00  0.4400E+02
     -3.478  0.0000E+00  0.4400E+02
     -3.248  0.0000E+00  0.4400E+02
     -3.017  0.0000E+00  0.4400E+02
     -2.787  0.0000E+00  0.4400E+02
     -2.556  0.0000E+00  0.4400E+02
     -2.326  0.0000E+00  0.4400E+02
     -2.095  0.0000E+00  0.4400E+02
     -1.865  0.0000E+00  0.4400E+02
     -1.634  0.0000E+00  0.4400E+02
     -1.404  0.0000E+00  0.4400E+02
     -1.173  0.3235E+00  0.4400E+02
     -0.943  0.1243E+01  0.4428E+02
     -0.712  0.1011E+01  0.4456E+02
     -0.482  0.2055E+01  0.4485E+02
     -0.251  0.8351E+01  0.4602E+02
     -0.021  0.7982E+01  0.4793E+02
      0.210  0.7724E+01  0.4983E+02
      0.440  0.7268E+01  0.5175E+02
      0.671  0.5268E+01  0.5306E+02
      0.901  0.7400E+01  0.5476E+02
      1.132  0.7240E+01  0.5634E+02
      1.362  0.1187E+02  0.5875E+02
      1.593  0.8871E+01  0.6222E+02
      1.823  0.4769E+01  0.6384E+02
      2.054  0.6080E+01  0.6505E+02
      2.284  0.7155E+01  0.6666E+02
      2.515  0.4221E+01  0.6786E+02
      2.745  0.9915E+01  0.6990E+02
      2.976  0.8592E+01  0.7228E+02
      3.206  0.7419E+01  0.7470E+02
      3.437  0.1034E+02  0.7658E+02
      3.667  0.6800E+01  0.7847E+02
      3.898  0.4322E+01  0.7978E+02
      4.128  0.0000E+00  0.8000E+02
      4.359  0.0000E+00  0.8000E+02
      4.589  0.0000E+00  0.8000E+02
      4.820  0.0000E+00  0.8000E+02
      5.050  0.0000E+00  0.8000E+02
      5.281  0.0000E+00  0.8000E+02
      5.511  0.0000E+00  0.8000E+02
      5.742  0.0000E+00  0.8000E+02
      5.972  0.0000E+00  0.8000E+02
      6.203  0.0000E+00  0.8000E+02
      6.433  0.5335E+00  0.8004E+02
      6.664  0.1948E+01  0.8034E+02
      6.894  0.2485E+01  0.8088E+02
      7.125  0.2949E+01  0.8150E+02
      7.355  0.2738E+01  0.8223E+02
      7.586  0.3594E+01  0.8292E+02
      7.816  0.5383E+01  0.8388E+02
      8.047  0.5067E+01  0.8499E+02
      8.277  0.8234E+01  0.8644E+02
      8.508  0.8788E+01  0.8874E+02
      8.738  0.4660E+01  0.9023E+02
      8.969  0.4290E+01  0.9131E+02
      9.199  0.1411E+01  0.9195E+02
      9.430  0.1607E+01  0.9227E+02
      9.660  0.2334E+01  0.9270E+02
      9.891  0.2720E+01  0.9328E+02
     10.121  0.2971E+01  0.9398E+02
     10.352  0.2183E+01  0.9457E+02
     10.582  0.2087E+01  0.9503E+02
     10.813  0.1578E+01  0.9541E+02
     11.043  0.1572E+01  0.9580E+02
     11.274  0.2416E+00  0.9599E+02
     11.504  0.0000E+00  0.9600E+02
     11.735  0.0000E+00  0.9600E+02
     11.965  0.0000E+00  0.9600E+02
     12.196  0.0000E+00  0.9600E+02
     12.426  0.0000E+00  0.9600E+02
     12.657  0.0000E+00  0.9600E+02
     12.887  0.0000E+00  0.9600E+02
     13.118  0.0000E+00  0.9600E+02
     13.348  0.0000E+00  0.9600E+02
     13.579  0.0000E+00  0.9600E+02
     13.809  0.0000E+00  0.9600E+02
     14.040  0.0000E+00  0.9600E+02
     14.270  0.0000E+00  0.9600E+02
     14.501  0.0000E+00  0.9600E+02
