 running on  100 total cores
 distrk:  each k-point on  100 cores,    1 groups
 distr:  one band on   25 cores,    4 groups
 using from now: INCAR     
 vasp.5.4.4.18Apr17-6-g9f103f2a35 (build May 23 2017 16:08:52) complex          
  
 POSCAR found :  4 types and      75 ions
 scaLAPACK will be used

 ----------------------------------------------------------------------------- 
|                                                                             |
|           W    W    AA    RRRRR   N    N  II  N    N   GGGG   !!!           |
|           W    W   A  A   R    R  NN   N  II  NN   N  G    G  !!!           |
|           W    W  A    A  R    R  N N  N  II  N N  N  G       !!!           |
|           W WW W  AAAAAA  RRRRR   N  N N  II  N  N N  G  GGG   !            |
|           WW  WW  A    A  R   R   N   NN  II  N   NN  G    G                |
|           W    W  A    A  R    R  N    N  II  N    N   GGGG   !!!           |
|                                                                             |
|      For optimal performance we recommend to set                            |
|        NCORE= 4 - approx SQRT( number of cores)                             |
|      NCORE specifies how many cores store one orbital (NPAR=cpu/NCORE).     |
|      This setting can  greatly improve the performance of VASP for DFT.     |
|      The default,   NCORE=1            might be grossly inefficient         |
|      on modern multi-core architectures or massively parallel machines.     |
|      Do your own testing !!!!                                               |
|      Unfortunately you need to use the default for GW and RPA calculations. |
|      (for HF NCORE is supported but not extensively tested yet)             |
|                                                                             |
 ----------------------------------------------------------------------------- 


 ----------------------------------------------------------------------------- 
|                                                                             |
|  ADVICE TO THIS USER RUNNING 'VASP/VAMP'   (HEAR YOUR MASTER'S VOICE ...):  |
|                                                                             |
|      You have a (more or less) 'large supercell' and for larger cells       |
|      it might be more efficient to use real space projection opertators     |
|      So try LREAL= Auto  in the INCAR   file.                               |
|      Mind:          For very  accurate calculation you might also keep the  |
|      reciprocal projection scheme          (i.e. LREAL=.FALSE.)             |
|                                                                             |
 ----------------------------------------------------------------------------- 

 LDA part: xc-table for Pade appr. of Perdew
 POSCAR, INCAR and KPOINTS ok, starting setup
 FFT: planning ...
 WAVECAR not read
 entering main loop
       N       E                     dE             d eps       ncg     rms          rms(c)
DAV:   1     0.700454367539E+04    0.70045E+04   -0.31732E+05 11776   0.170E+03
DAV:   2     0.295731305224E+03   -0.67088E+04   -0.63875E+04 13688   0.562E+02
DAV:   3    -0.650119719755E+03   -0.94585E+03   -0.93110E+03 16384   0.198E+02
DAV:   4    -0.719275672077E+03   -0.69156E+02   -0.68431E+02 18792   0.549E+01
DAV:   5    -0.724501597060E+03   -0.52259E+01   -0.51706E+01 21528   0.121E+01    0.889E+01
DAV:   6    -0.611179218312E+03    0.11332E+03   -0.66986E+02 16352   0.546E+01    0.587E+01
DAV:   7    -0.617958014518E+03   -0.67788E+01   -0.19306E+02 17368   0.321E+01    0.413E+01
DAV:   8    -0.608009553558E+03    0.99485E+01   -0.32660E+01 17248   0.167E+01    0.194E+01
DAV:   9    -0.612316033384E+03   -0.43065E+01   -0.16611E+01 18384   0.805E+00    0.189E+01
DAV:  10    -0.608801484416E+03    0.35145E+01   -0.23746E+01 16200   0.109E+01    0.446E+00
DAV:  11    -0.608210354363E+03    0.59113E+00   -0.15145E+00 16616   0.307E+00    0.203E+00
DAV:  12    -0.608207503355E+03    0.28510E-02   -0.43050E-01 17432   0.146E+00    0.141E+00
DAV:  13    -0.608217019234E+03   -0.95159E-02   -0.23973E-01 18400   0.989E-01    0.927E-01
DAV:  14    -0.608199844747E+03    0.17174E-01   -0.31775E-02 17568   0.394E-01    0.480E-01
DAV:  15    -0.608202657644E+03   -0.28129E-02   -0.32658E-03 17280   0.119E-01    0.470E-01
DAV:  16    -0.608194268298E+03    0.83893E-02   -0.27347E-03 17048   0.205E-01    0.769E-02
DAV:  17    -0.608194752719E+03   -0.48442E-03   -0.62457E-04 15128   0.498E-02    0.643E-02
DAV:  18    -0.608194603668E+03    0.14905E-03   -0.10573E-04 15216   0.217E-02    0.432E-02
DAV:  19    -0.608194457534E+03    0.14613E-03   -0.21474E-05  9664   0.146E-02    0.200E-02
DAV:  20    -0.608194267072E+03    0.19046E-03   -0.61687E-04  9240   0.121E-02    0.697E-02
DAV:  21    -0.608194289281E+03   -0.22209E-04   -0.62407E-06  7152   0.732E-03    0.658E-02
DAV:  22    -0.608194292162E+03   -0.28806E-05   -0.23650E-06  7064   0.418E-03
   1 F= -.60819429E+03 E0= -.60819429E+03  d E =-.608194E+03
 curvature:   0.00 expect dE= 0.000E+00 dE for cont linesearch  0.000E+00
 trial: gam= 0.00000 g(F)=  0.758E+00 g(S)=  0.997E+01 ort = 0.000E+00 (trialstep = 0.100E+01)
 search vector abs. value=  0.107E+02
 bond charge predicted
       N       E                     dE             d eps       ncg     rms          rms(c)
DAV:   1    -0.678508982954E+03   -0.70315E+02   -0.22712E+03 15168   0.121E+02    0.756E+01
DAV:   2    -0.643802804760E+03    0.34706E+02   -0.42405E+02 16320   0.504E+01    0.339E+01
DAV:   3    -0.609727831334E+03    0.34075E+02   -0.89696E+01 17776   0.254E+01    0.192E+01
DAV:   4    -0.607366515419E+03    0.23613E+01   -0.22953E+01 16904   0.875E+00    0.161E+01
DAV:   5    -0.609370098258E+03   -0.20036E+01   -0.15528E+01 17496   0.747E+00    0.140E+01
DAV:   6    -0.608266926372E+03    0.11032E+01   -0.63534E+00 17416   0.697E+00    0.995E+00
DAV:   7    -0.607987703228E+03    0.27922E+00   -0.57124E+00 18128   0.386E+00    0.363E+00
DAV:   8    -0.608062694575E+03   -0.74991E-01   -0.11315E+00 18672   0.225E+00    0.280E+00
DAV:   9    -0.608060517372E+03    0.21772E-02   -0.18207E+00 17016   0.210E+00    0.325E+00
DAV:  10    -0.607939759500E+03    0.12076E+00   -0.14860E-01 15968   0.885E-01    0.131E+00
DAV:  11    -0.607937641380E+03    0.21181E-02   -0.22565E-02 18904   0.342E-01    0.676E-01
DAV:  12    -0.607941073911E+03   -0.34325E-02   -0.16913E-02 19144   0.279E-01    0.224E-01
DAV:  13    -0.607941760266E+03   -0.68635E-03   -0.25574E-03 16304   0.939E-02    0.155E-01
DAV:  14    -0.607939889339E+03    0.18709E-02   -0.31336E-03 17128   0.723E-02    0.855E-02
DAV:  15    -0.607940075434E+03   -0.18610E-03   -0.25603E-04 14904   0.346E-02    0.559E-02
DAV:  16    -0.607940498305E+03   -0.42287E-03   -0.65542E-05 13096   0.207E-02    0.199E-02
DAV:  17    -0.607940812414E+03   -0.31411E-03   -0.19231E-04  9096   0.115E-02    0.954E-02
DAV:  18    -0.607940705355E+03    0.10706E-03   -0.14241E-04  7072   0.685E-03    0.340E-02
DAV:  19    -0.607940701407E+03    0.39487E-05   -0.17604E-06  6992   0.342E-03
   2 F= -.60794070E+03 E0= -.60794070E+03  d E =0.253591E+00
 trial-energy change:    0.253591  1 .order   -0.183735  -10.725418   10.357947
 step:   0.4777(harm=  0.5087)  dis= 0.02165  next Energy=  -610.708197 (dE=-0.251E+01)
 bond charge predicted
       N       E                     dE             d eps       ncg     rms          rms(c)
DAV:   1    -0.630465441419E+03   -0.22525E+02   -0.62932E+02 14808   0.620E+01    0.372E+01
DAV:   2    -0.615046381637E+03    0.15419E+02   -0.66567E+01 14152   0.190E+01    0.160E+01
DAV:   3    -0.617957786839E+03   -0.29114E+01   -0.60052E+01 16968   0.191E+01    0.148E+01
DAV:   4    -0.612581909574E+03    0.53759E+01   -0.85706E+00 16656   0.755E+00    0.818E+00
DAV:   5    -0.610455019207E+03    0.21269E+01   -0.23382E+00 18528   0.508E+00    0.330E+00
DAV:   6    -0.610534075583E+03   -0.79056E-01   -0.14699E+00 17616   0.191E+00    0.212E+00
DAV:   7    -0.610574544144E+03   -0.40469E-01   -0.28967E-01 17584   0.961E-01    0.172E+00
DAV:   8    -0.610678214020E+03   -0.10367E+00   -0.30013E-01 18968   0.104E+00    0.209E+00
DAV:   9    -0.610721991678E+03   -0.43778E-01   -0.34903E-01 18200   0.151E+00    0.170E+00
DAV:  10    -0.610676009972E+03    0.45982E-01   -0.11739E-01 17232   0.507E-01    0.802E-01
DAV:  11    -0.610664894723E+03    0.11115E-01   -0.25050E-02 19616   0.295E-01    0.337E-01
DAV:  12    -0.610656104390E+03    0.87903E-02   -0.46174E-03 18264   0.193E-01    0.120E-01
DAV:  13    -0.610656481689E+03   -0.37730E-03   -0.13290E-03 14880   0.635E-02    0.114E-01
DAV:  14    -0.610656626484E+03   -0.14480E-03   -0.56307E-04 15528   0.443E-02    0.528E-02
DAV:  15    -0.610657722975E+03   -0.10965E-02   -0.17740E-04 15000   0.361E-02    0.518E-02
DAV:  16    -0.610657315332E+03    0.40764E-03   -0.52662E-05  9128   0.154E-02    0.272E-02
DAV:  17    -0.610656870475E+03    0.44486E-03   -0.15655E-05  9136   0.120E-02    0.104E-02
DAV:  18    -0.610656876820E+03   -0.63452E-05   -0.56400E-06  7032   0.677E-03
   3 F= -.61065688E+03 E0= -.61065688E+03  d E =-.246258E+01
 curvature:  -0.25 expect dE=-0.833E-01 dE for cont linesearch -0.110E-02
 ZBRENT: interpolating
 opt :   0.4682  next Energy=  -610.657898 (dE=-0.246E+01)
 bond charge predicted
       N       E                     dE             d eps       ncg     rms          rms(c)
DAV:   1    -0.610662461500E+03   -0.55910E-02   -0.20703E-01 15160   0.114E+00    0.649E-01
DAV:   2    -0.610662397250E+03    0.64250E-04   -0.22474E-02 14848   0.358E-01    0.295E-01
DAV:   3    -0.610654371017E+03    0.80262E-02   -0.68407E-03 16576   0.290E-01    0.431E-01
DAV:   4    -0.610657034902E+03   -0.26639E-02   -0.28569E-03 15968   0.190E-01    0.784E-02
DAV:   5    -0.610657421530E+03   -0.38663E-03   -0.57792E-04 16960   0.386E-02    0.671E-02
DAV:   6    -0.610657466265E+03   -0.44735E-04   -0.77667E-05 13624   0.139E-02    0.490E-02
DAV:   7    -0.610657471212E+03   -0.49462E-05   -0.17917E-04 16216   0.190E-02    0.194E-02
DAV:   8    -0.610657489827E+03   -0.18615E-04   -0.34922E-05  9208   0.109E-02    0.828E-03
DAV:   9    -0.610657488632E+03    0.11953E-05   -0.37815E-06  6856   0.570E-03
   4 F= -.61065749E+03 E0= -.61065749E+03  d E =-.246320E+01
 curvature:  -0.23 expect dE=-0.731E-01 dE for cont linesearch -0.144E-04
 trial: gam= 0.03150 g(F)=  0.295E+00 g(S)=  0.172E-01 ort =-0.257E-01 (trialstep = 0.894E+00)
 search vector abs. value=  0.321E+00
 bond charge predicted
       N       E                     dE             d eps       ncg     rms          rms(c)
DAV:   1    -0.610883763421E+03   -0.22627E+00   -0.30350E+01 12408   0.708E+00    0.220E+00
DAV:   2    -0.610949842666E+03   -0.66079E-01   -0.11226E+00 16352   0.198E+00    0.253E+00
DAV:   3    -0.610927771053E+03    0.22072E-01   -0.33418E-01 17288   0.122E+00    0.129E+00
DAV:   4    -0.610903340885E+03    0.24430E-01   -0.96086E-02 16944   0.517E-01    0.694E-01
DAV:   5    -0.610911018882E+03   -0.76780E-02   -0.26258E-02 16872   0.284E-01    0.342E-01
DAV:   6    -0.610906454974E+03    0.45639E-02   -0.40292E-03 19240   0.130E-01    0.119E-01
DAV:   7    -0.610906212423E+03    0.24255E-03   -0.57917E-04 18328   0.457E-02    0.816E-02
DAV:   8    -0.610905446447E+03    0.76598E-03   -0.11648E-04 15384   0.330E-02    0.275E-02
DAV:   9    -0.610905560455E+03   -0.11401E-03   -0.42699E-05 10912   0.157E-02    0.126E-02
DAV:  10    -0.610905461903E+03    0.98552E-04   -0.78520E-06  7472   0.786E-03    0.618E-03
DAV:  11    -0.610905445542E+03    0.16362E-04   -0.35514E-06  6952   0.574E-03    0.346E-03
DAV:  12    -0.610905453875E+03   -0.83337E-05   -0.15815E-06  6752   0.382E-03
   5 F= -.61090545E+03 E0= -.61090545E+03  d E =-.247965E+00
 trial-energy change:   -0.247965  1 .order   -0.240109   -0.278196   -0.202021
 step:   1.9131(harm=  3.2637)  dis= 0.07409  next Energy=  -611.032350 (dE=-0.375E+00)
 bond charge predicted
       N       E                     dE             d eps       ncg     rms          rms(c)
DAV:   1    -0.611062541312E+03   -0.15710E+00   -0.39387E+01 12400   0.812E+00    0.253E+00
DAV:   2    -0.611163940199E+03   -0.10140E+00   -0.14392E+00 16376   0.230E+00    0.300E+00
DAV:   3    -0.611119920329E+03    0.44020E-01   -0.41824E-01 17288   0.142E+00    0.148E+00
DAV:   4    -0.611090715596E+03    0.29205E-01   -0.70399E-02 16872   0.586E-01    0.761E-01
DAV:   5    -0.611097859313E+03   -0.71437E-02   -0.36487E-02 16968   0.288E-01    0.335E-01
DAV:   6    -0.611093188984E+03    0.46703E-02   -0.64462E-03 19096   0.140E-01    0.106E-01
DAV:   7    -0.611093398278E+03   -0.20929E-03   -0.56376E-04 17808   0.463E-02    0.548E-02
DAV:   8    -0.611093376754E+03    0.21524E-04   -0.12432E-04 14392   0.239E-02    0.223E-02
DAV:   9    -0.611093508490E+03   -0.13174E-03   -0.19411E-05  9216   0.125E-02    0.760E-03
DAV:  10    -0.611093505000E+03    0.34903E-05   -0.73265E-06  7080   0.648E-03
   6 F= -.61109350E+03 E0= -.61109350E+03  d E =-.436016E+00
 curvature:  -1.14 expect dE=-0.123E+00 dE for cont linesearch -0.548E-01
 ZBRENT: increasing intervall
 opt :   3.9520  next Energy=  -611.139910 (dE=-0.482E+00)
 bond charge predicted
       N       E                     dE             d eps       ncg     rms          rms(c)
DAV:   1    -0.610969426699E+03    0.12408E+00   -0.15745E+02 12344   0.164E+01    0.562E+00
DAV:   2    -0.611990431748E+03   -0.10210E+01   -0.88876E+00 16320   0.552E+00    0.742E+00
DAV:   3    -0.611153920801E+03    0.83651E+00   -0.15356E+00 17256   0.345E+00    0.246E+00
DAV:   4    -0.611140686753E+03    0.13234E-01   -0.13341E-01 17016   0.739E-01    0.135E+00
DAV:   5    -0.611153278951E+03   -0.12592E-01   -0.58344E-02 19064   0.488E-01    0.869E-01
DAV:   6    -0.611141660917E+03    0.11618E-01   -0.10116E-01 17336   0.406E-01    0.481E-01
DAV:   7    -0.611142644827E+03   -0.98391E-03   -0.44729E-03 17040   0.155E-01    0.181E-01
DAV:   8    -0.611143052692E+03   -0.40786E-03   -0.82284E-04 18648   0.532E-02    0.106E-01
DAV:   9    -0.611143911017E+03   -0.85832E-03   -0.10318E-04 16872   0.362E-02    0.311E-02
DAV:  10    -0.611144067579E+03   -0.15656E-03   -0.37270E-05 11408   0.136E-02    0.156E-02
DAV:  11    -0.611144182284E+03   -0.11470E-03   -0.75522E-06  7280   0.789E-03    0.779E-03
DAV:  12    -0.611144256707E+03   -0.74423E-04   -0.39271E-06  7048   0.604E-03    0.250E-03
DAV:  13    -0.611144277551E+03   -0.20844E-04   -0.21440E-06  7008   0.426E-03    0.112E-03
DAV:  14    -0.611144273386E+03    0.41656E-05   -0.11955E-06  6912   0.321E-03
   7 F= -.61114427E+03 E0= -.61114427E+03  d E =-.486785E+00
 curvature:  -0.96 expect dE=-0.288E+00 dE for cont linesearch -0.287E-01
 ZBRENT: bracketing found
 ZBRENT: interpolating
 opt :   3.0547  next Energy=  -611.188154 (dE=-0.531E+00)
 bond charge predicted
       N       E                     dE             d eps       ncg     rms          rms(c)
DAV:   1    -0.611131185988E+03    0.13092E-01   -0.29758E+01 12248   0.728E+00    0.224E+00
DAV:   2    -0.611257535544E+03   -0.12635E+00   -0.11729E+00 16000   0.199E+00    0.324E+00
DAV:   3    -0.611186395323E+03    0.71140E-01   -0.89387E-01 17440   0.129E+00    0.152E+00
DAV:   4    -0.611177460488E+03    0.89348E-02   -0.49273E-02 17248   0.506E-01    0.668E-01
DAV:   5    -0.611177750053E+03   -0.28956E-03   -0.75681E-03 17120   0.171E-01    0.207E-01
DAV:   6    -0.611176973706E+03    0.77635E-03   -0.17080E-03 19512   0.865E-02    0.765E-02
DAV:   7    -0.611177021286E+03   -0.47580E-04   -0.30480E-04 15416   0.370E-02    0.437E-02
DAV:   8    -0.611176910050E+03    0.11124E-03   -0.41574E-05 11552   0.153E-02    0.189E-02
DAV:   9    -0.611177025521E+03   -0.11547E-03   -0.10325E-05  7456   0.974E-03    0.829E-03
DAV:  10    -0.611177055286E+03   -0.29765E-04   -0.39718E-06  7024   0.542E-03    0.487E-03
DAV:  11    -0.611177082568E+03   -0.27282E-04   -0.17029E-06  6944   0.438E-03    0.268E-03
DAV:  12    -0.611177083422E+03   -0.85410E-06   -0.89479E-07  6840   0.275E-03
   8 F= -.61117708E+03 E0= -.61117708E+03  d E =-.519595E+00
 curvature:  -1.47 expect dE=-0.231E+00 dE for cont linesearch -0.820E-04
 trial: gam= 0.51587 g(F)=  0.139E+00 g(S)=  0.175E-01 ort = 0.423E-02 (trialstep = 0.133E+01)
 search vector abs. value=  0.247E+00
 bond charge predicted
       N       E                     dE             d eps       ncg     rms          rms(c)
DAV:   1    -0.610962457806E+03    0.21462E+00   -0.69950E+01 12208   0.172E+01    0.327E+00
DAV:   2    -0.611185373938E+03   -0.22292E+00   -0.42148E+00 14312   0.465E+00    0.225E+00
DAV:   3    -0.611235949356E+03   -0.50575E-01   -0.42251E-01 18424   0.157E+00    0.228E+00
DAV:   4    -0.611161682603E+03    0.74267E-01   -0.22721E-01 16944   0.103E+00    0.112E+00
DAV:   5    -0.611156093892E+03    0.55887E-02   -0.53014E-02 18704   0.563E-01    0.413E-01
DAV:   6    -0.611154669234E+03    0.14247E-02   -0.10170E-02 18264   0.202E-01    0.287E-01
DAV:   7    -0.611155781642E+03   -0.11124E-02   -0.21202E-03 17888   0.909E-02    0.157E-01
DAV:   8    -0.611155922156E+03   -0.14051E-03   -0.70116E-04 18312   0.489E-02    0.463E-02
DAV:   9    -0.611155799722E+03    0.12243E-03   -0.14474E-04 15592   0.271E-02    0.166E-02
DAV:  10    -0.611155755327E+03    0.44395E-04   -0.34960E-05 10408   0.121E-02    0.123E-02
DAV:  11    -0.611155749024E+03    0.63024E-05   -0.44770E-06  7128   0.630E-03
   9 F= -.61115575E+03 E0= -.61115575E+03  d E =0.213344E-01
 trial-energy change:    0.021334  1 .order   -0.016566   -0.210624    0.177491
 step:   0.5328(harm=  0.7195)  dis= 0.01321  next Energy=  -611.216943 (dE=-0.399E-01)
 bond charge predicted
       N       E                     dE             d eps       ncg     rms          rms(c)
DAV:   1    -0.611148762622E+03    0.69927E-02   -0.25042E+01 12344   0.102E+01    0.201E+00
DAV:   2    -0.611236883251E+03   -0.88121E-01   -0.14748E+00 14456   0.273E+00    0.137E+00
DAV:   3    -0.611232463542E+03    0.44197E-02   -0.19814E-01 17816   0.100E+00    0.153E+00
DAV:   4    -0.611221563320E+03    0.10900E-01   -0.88930E-02 16576   0.656E-01    0.603E-01
DAV:   5    -0.611213789927E+03    0.77734E-02   -0.15225E-02 18632   0.306E-01    0.225E-01
DAV:   6    -0.611215084114E+03   -0.12942E-02   -0.29590E-03 18432   0.107E-01    0.156E-01
DAV:   7    -0.611215215075E+03   -0.13096E-03   -0.58725E-04 18648   0.473E-02    0.808E-02
DAV:   8    -0.611215408346E+03   -0.19327E-03   -0.17771E-04 16472   0.259E-02    0.166E-02
DAV:   9    -0.611215428113E+03   -0.19767E-04   -0.32142E-05 10512   0.132E-02    0.105E-02
DAV:  10    -0.611215402136E+03    0.25977E-04   -0.76879E-06  7128   0.706E-03    0.623E-03
DAV:  11    -0.611215360190E+03    0.41946E-04   -0.26599E-06  6920   0.537E-03    0.207E-03
DAV:  12    -0.611215351757E+03    0.84328E-05   -0.13873E-06  6880   0.335E-03
  10 F= -.61121535E+03 E0= -.61121535E+03  d E =-.382683E-01
 curvature:  -0.51 expect dE=-0.488E-02 dE for cont linesearch -0.230E-02
 ZBRENT: interpolating
 opt :   0.6916  next Energy=  -611.218013 (dE=-0.409E-01)
 bond charge predicted
       N       E                     dE             d eps       ncg     rms          rms(c)
DAV:   1    -0.611212508868E+03    0.28513E-02   -0.10033E+00 12392   0.205E+00    0.407E-01
DAV:   2    -0.611213030797E+03   -0.52193E-03   -0.64636E-02 14472   0.567E-01    0.337E-01
DAV:   3    -0.611219128938E+03   -0.60981E-02   -0.11041E-02 17696   0.235E-01    0.313E-01
DAV:   4    -0.611214333749E+03    0.47952E-02   -0.28718E-03 16888   0.133E-01    0.124E-01
DAV:   5    -0.611214759163E+03   -0.42541E-03   -0.73281E-04 18584   0.603E-02    0.470E-02
DAV:   6    -0.611214492573E+03    0.26659E-03   -0.19474E-04 16016   0.248E-02    0.383E-02
DAV:   7    -0.611214742772E+03   -0.25020E-03   -0.28668E-05  9944   0.140E-02    0.193E-02
DAV:   8    -0.611214572742E+03    0.17003E-03   -0.38089E-05  7496   0.107E-02    0.153E-02
DAV:   9    -0.611214638804E+03   -0.66062E-04   -0.55482E-06  6832   0.770E-03    0.881E-03
DAV:  10    -0.611214638178E+03    0.62527E-06   -0.48946E-06  6712   0.481E-03
  11 F= -.61121464E+03 E0= -.61121464E+03  d E =-.375548E-01
 curvature:  -0.58 expect dE=-0.257E-02 dE for cont linesearch -0.650E-05
 ZBRENT: interpolating
 opt :   0.6997  next Energy=  -611.214645 (dE=-0.376E-01)
 bond charge predicted
       N       E                     dE             d eps       ncg     rms          rms(c)
DAV:   1    -0.611214475602E+03    0.16320E-03   -0.26384E-03 12448   0.106E-01    0.208E-02
DAV:   2    -0.611214648032E+03   -0.17243E-03   -0.16158E-04 13560   0.271E-02    0.255E-02
DAV:   3    -0.611214307974E+03    0.34006E-03   -0.11774E-04  9088   0.130E-02    0.192E-02
DAV:   4    -0.611214465596E+03   -0.15762E-03   -0.59258E-06  7232   0.868E-03    0.786E-03
DAV:   5    -0.611214483461E+03   -0.17865E-04   -0.40601E-06  6544   0.416E-03    0.412E-03
DAV:   6    -0.611214480889E+03    0.25720E-05   -0.12823E-06  6440   0.358E-03
  12 F= -.61121448E+03 E0= -.61121448E+03  d E =-.373975E-01
 curvature:  -0.61 expect dE=-0.276E-02 dE for cont linesearch -0.115E-07
 trial: gam= 0.02437 g(F)=  0.290E-02 g(S)=  0.159E-02 ort =-0.679E-04 (trialstep = 0.120E+01)
 search vector abs. value=  0.464E-02
 bond charge predicted
       N       E                     dE             d eps       ncg     rms          rms(c)
DAV:   1    -0.611219994584E+03   -0.55111E-02   -0.15805E+00 12856   0.268E+00    0.831E-01
DAV:   2    -0.611220034978E+03   -0.40394E-04   -0.77423E-02 14296   0.664E-01    0.453E-01
DAV:   3    -0.611214648484E+03    0.53865E-02   -0.47862E-02 16248   0.387E-01    0.762E-01
DAV:   4    -0.611214976440E+03   -0.32796E-03   -0.13242E-02 16056   0.288E-01    0.127E-01
DAV:   5    -0.611214904926E+03    0.71513E-04   -0.15878E-03 17888   0.708E-02    0.939E-02
DAV:   6    -0.611215037706E+03   -0.13278E-03   -0.27134E-04 16976   0.259E-02    0.695E-02
DAV:   7    -0.611215101506E+03   -0.63800E-04   -0.17873E-04 15784   0.242E-02    0.249E-02
DAV:   8    -0.611214928657E+03    0.17285E-03   -0.41165E-05 10672   0.135E-02    0.114E-02
DAV:   9    -0.611214902814E+03    0.25843E-04   -0.96329E-06  7040   0.762E-03    0.456E-03
DAV:  10    -0.611214899784E+03    0.30295E-05   -0.29470E-06  6840   0.588E-03
  13 F= -.61121490E+03 E0= -.61121490E+03  d E =-.418895E-03
 trial-energy change:   -0.000419  1 .order   -0.002514   -0.005397    0.000370
 step:   1.1236(harm=  1.1236)  dis= 0.00342  next Energy=  -611.217006 (dE=-0.253E-02)
 bond charge predicted
       N       E                     dE             d eps       ncg     rms          rms(c)
DAV:   1    -0.611215227204E+03   -0.32439E-03   -0.64959E-03 12920   0.172E-01    0.532E-02
DAV:   2    -0.611214945024E+03    0.28218E-03   -0.31586E-04 14488   0.427E-02    0.270E-02
DAV:   3    -0.611215494229E+03   -0.54921E-03   -0.32939E-05 11168   0.208E-02    0.318E-02
DAV:   4    -0.611215009286E+03    0.48494E-03   -0.21293E-05  9752   0.175E-02    0.894E-03
DAV:   5    -0.611215053018E+03   -0.43732E-04   -0.61023E-06  6840   0.666E-03    0.540E-03
DAV:   6    -0.611215067345E+03   -0.14326E-04   -0.24252E-06  6424   0.414E-03    0.319E-03
DAV:   7    -0.611215059031E+03    0.83132E-05   -0.15465E-06  6384   0.307E-03
  14 F= -.61121506E+03 E0= -.61121506E+03  d E =-.578142E-03
 curvature:  -0.58 expect dE=-0.135E-02 dE for cont linesearch -0.963E-07
 trial: gam= 0.52669 g(F)=  0.111E-02 g(S)=  0.123E-02 ort =-0.278E-04 (trialstep = 0.119E+01)
 search vector abs. value=  0.359E-02
 bond charge predicted
       N       E                     dE             d eps       ncg     rms          rms(c)
DAV:   1    -0.611216530049E+03   -0.14627E-02   -0.12449E+00 12696   0.226E+00    0.485E-01
DAV:   2    -0.611214503686E+03    0.20264E-02   -0.62289E-02 14240   0.603E-01    0.478E-01
DAV:   3    -0.611222410807E+03   -0.79071E-02   -0.22549E-02 15920   0.281E-01    0.434E-01
DAV:   4    -0.611216707121E+03    0.57037E-02   -0.59916E-03 15096   0.155E-01    0.148E-01
DAV:   5    -0.611216052042E+03    0.65508E-03   -0.93057E-04 17896   0.649E-02    0.853E-02
DAV:   6    -0.611216287592E+03   -0.23555E-03   -0.19869E-04 16736   0.280E-02    0.528E-02
DAV:   7    -0.611216215239E+03    0.72352E-04   -0.24917E-05  9768   0.118E-02    0.378E-02
DAV:   8    -0.611216271356E+03   -0.56117E-04   -0.60702E-05 12704   0.160E-02    0.489E-02
DAV:   9    -0.611216311333E+03   -0.39977E-04   -0.11281E-05  7400   0.851E-03    0.104E-02
DAV:  10    -0.611216348749E+03   -0.37416E-04   -0.49045E-06  6832   0.611E-03    0.578E-03
DAV:  11    -0.611216338592E+03    0.10156E-04   -0.33805E-06  6608   0.504E-03    0.318E-03
DAV:  12    -0.611216341640E+03   -0.30479E-05   -0.18669E-06  6512   0.398E-03
  15 F= -.61121634E+03 E0= -.61121634E+03  d E =-.128261E-02
 trial-energy change:   -0.001283  1 .order   -0.001532   -0.002750   -0.000315
 step:   1.3385(harm=  1.3385)  dis= 0.00322  next Energy=  -611.216612 (dE=-0.155E-02)
 bond charge predicted
       N       E                     dE             d eps       ncg     rms          rms(c)
DAV:   1    -0.611216426147E+03   -0.87554E-04   -0.20815E-02 12728   0.292E-01    0.618E-02
DAV:   2    -0.611215959997E+03    0.46615E-03   -0.93178E-04 14064   0.754E-02    0.665E-02
DAV:   3    -0.611216782951E+03   -0.82295E-03   -0.54747E-05 12848   0.308E-02    0.444E-02
DAV:   4    -0.611216278590E+03    0.50436E-03   -0.23342E-05  9544   0.206E-02    0.224E-02
DAV:   5    -0.611216428257E+03   -0.14967E-03   -0.14670E-05  7672   0.107E-02    0.143E-02
DAV:   6    -0.611216357489E+03    0.70768E-04   -0.86057E-06  7120   0.834E-03    0.621E-03
DAV:   7    -0.611216335848E+03    0.21641E-04   -0.17574E-05  6616   0.556E-03    0.445E-02
DAV:   8    -0.611216324918E+03    0.10930E-04   -0.26981E-06  6432   0.509E-03    0.672E-03
DAV:   9    -0.611216363051E+03   -0.38133E-04   -0.21675E-06  6544   0.421E-03    0.847E-03
DAV:  10    -0.611216353238E+03    0.98135E-05   -0.13422E-06  6288   0.337E-03
  16 F= -.61121635E+03 E0= -.61121635E+03  d E =-.129421E-02
 curvature:  -1.04 expect dE=-0.178E-02 dE for cont linesearch -0.354E-06
 trial: gam= 0.71476 g(F)=  0.104E-02 g(S)=  0.670E-03 ort = 0.350E-04 (trialstep = 0.121E+01)
 search vector abs. value=  0.360E-02
 bond charge predicted
       N       E                     dE             d eps       ncg     rms          rms(c)
DAV:   1    -0.611216279116E+03    0.83935E-04   -0.13901E+00 12072   0.209E+00    0.306E-01
DAV:   2    -0.611220335368E+03   -0.40563E-02   -0.38755E-02 14208   0.443E-01    0.227E-01
DAV:   3    -0.611217004671E+03    0.33307E-02   -0.26405E-03 16016   0.130E-01    0.212E-01
DAV:   4    -0.611218798300E+03   -0.17936E-02   -0.34262E-04 16232   0.803E-02    0.118E-01
DAV:   5    -0.611218497425E+03    0.30087E-03   -0.50168E-04 15688   0.531E-02    0.483E-02
DAV:   6    -0.611218256879E+03    0.24055E-03   -0.14378E-04 15776   0.222E-02    0.267E-02
DAV:   7    -0.611218171657E+03    0.85222E-04   -0.10656E-05  7544   0.840E-03    0.147E-02
DAV:   8    -0.611218117952E+03    0.53705E-04   -0.51773E-06  7048   0.656E-03    0.531E-03
DAV:   9    -0.611218102897E+03    0.15054E-04   -0.28230E-06  6888   0.487E-03    0.197E-03
DAV:  10    -0.611218098916E+03    0.39816E-05   -0.16796E-06  6736   0.379E-03
  17 F= -.61121810E+03 E0= -.61121810E+03  d E =-.174568E-02
 trial-energy change:   -0.001746  1 .order   -0.001252   -0.002110   -0.000394
 step:   1.3107(harm=  1.4918)  dis= 0.00387  next Energy=  -611.218115 (dE=-0.176E-02)
 reached required accuracy - stopping structural energy minimisation
 writing wavefunctions
