<?xml version="1.0" encoding="ISO-8859-1"?>
<modeling>
 <generator>
  <i name="program" type="string">vasp </i>
  <i name="version" type="string">5.4.4.18Apr17-6-g9f103f2a35  </i>
  <i name="subversion" type="string">(build Oct 23 2017 21:22:35) complex            parallel </i>
  <i name="platform" type="string">LinuxIFC </i>
  <i name="date" type="string">2017 12 27 </i>
  <i name="time" type="string">07:52:55 </i>
 </generator>
 <incar>
  <i type="string" name="PREC">accurate</i>
  <i type="int" name="IBRION">    -1</i>
  <i name="EDIFF">      0.00001000</i>
  <i name="EDIFFG">     -0.01000000</i>
  <i type="int" name="ISIF">     2</i>
  <i name="ENCUT">    500.00000000</i>
  <i type="int" name="ISMEAR">    -5</i>
  <v type="int" name="KPOINT_BSE">    -1     0     0     0</v>
 </incar>
 <structure name="primitive_cell" >
  <crystal>
   <varray name="basis" >
    <v>      -3.98093957      -3.98093957       0.00000000 </v>
    <v>       3.98093957       0.00000000      -3.98093957 </v>
    <v>       3.98295983      -3.98295983       3.98295983 </v>
   </varray>
   <i name="volume">    189.36440701 </i>
   <varray name="rec_basis" >
    <v>      -0.08373233      -0.16746465      -0.08373233 </v>
    <v>       0.08373233      -0.08373233      -0.16746465 </v>
    <v>       0.08368986      -0.08368986       0.08368986 </v>
   </varray>
  </crystal>
  <varray name="positions" >
   <v>       0.00000000       0.00000000      -0.50000000 </v>
   <v>      -0.16740954       0.16740954      -0.33212444 </v>
   <v>       0.16740954      -0.16740954       0.33212444 </v>
   <v>      -0.33481908      -0.16740954       0.33212444 </v>
   <v>      -0.16740954      -0.33481908      -0.33212444 </v>
   <v>       0.33481908       0.16740954      -0.33212444 </v>
   <v>       0.16740954       0.33481908       0.33212444 </v>
   <v>       0.00000000       0.00000000       0.00000000 </v>
   <v>       0.33333333      -0.33333333      -0.32761623 </v>
   <v>      -0.33333333       0.33333333       0.32761623 </v>
   <v>      -0.33333333       0.33333333      -0.16014473 </v>
   <v>       0.33333333      -0.33333333       0.16014473 </v>
   <v>      -0.50000000      -0.50000000       0.00000000 </v>
   <v>       0.00000000      -0.50000000       0.00000000 </v>
   <v>      -0.50000000       0.00000000       0.00000000 </v>
  </varray>
 </structure>
 <varray name="primitive_index" >
  <v type="int" >        1 </v>
  <v type="int" >        2 </v>
  <v type="int" >        8 </v>
  <v type="int" >        3 </v>
  <v type="int" >        4 </v>
  <v type="int" >        6 </v>
  <v type="int" >       10 </v>
  <v type="int" >       12 </v>
  <v type="int" >       11 </v>
  <v type="int" >       13 </v>
  <v type="int" >       14 </v>
  <v type="int" >       15 </v>
  <v type="int" >        5 </v>
  <v type="int" >        9 </v>
  <v type="int" >        7 </v>
 </varray>
 <kpoints>
  <generation param="Gamma">
   <v type="int" name="divisions">       6        6        4 </v>
   <v name="usershift">      0.00000000       0.00000000       0.00000000 </v>
   <v name="genvec1">      0.16666667       0.00000000       0.00000000 </v>
   <v name="genvec2">      0.00000000       0.16666667       0.00000000 </v>
   <v name="genvec3">      0.00000000       0.00000000       0.25000000 </v>
   <v name="shift">      0.00000000       0.00000000       0.00000000 </v>
  </generation>
  <varray name="kpointlist" >
   <v>       0.00000000       0.00000000       0.00000000 </v>
   <v>       0.16666667       0.00000000       0.00000000 </v>
   <v>       0.33333333       0.00000000       0.00000000 </v>
   <v>       0.50000000       0.00000000       0.00000000 </v>
   <v>       0.16666667       0.16666667       0.00000000 </v>
   <v>       0.33333333       0.16666667       0.00000000 </v>
   <v>       0.33333333       0.33333333       0.00000000 </v>
   <v>       0.00000000       0.00000000       0.25000000 </v>
   <v>       0.16666667       0.00000000       0.25000000 </v>
   <v>       0.33333333       0.00000000       0.25000000 </v>
   <v>       0.50000000       0.00000000       0.25000000 </v>
   <v>      -0.33333333       0.00000000       0.25000000 </v>
   <v>      -0.16666667       0.00000000       0.25000000 </v>
   <v>       0.16666667       0.16666667       0.25000000 </v>
   <v>       0.33333333       0.16666667       0.25000000 </v>
   <v>       0.50000000       0.16666667       0.25000000 </v>
   <v>       0.33333333       0.33333333       0.25000000 </v>
   <v>       0.00000000       0.00000000       0.50000000 </v>
   <v>       0.16666667       0.00000000       0.50000000 </v>
   <v>       0.33333333       0.00000000       0.50000000 </v>
   <v>       0.50000000       0.00000000       0.50000000 </v>
   <v>       0.16666667       0.16666667       0.50000000 </v>
   <v>       0.33333333       0.16666667       0.50000000 </v>
   <v>       0.33333333       0.33333333       0.50000000 </v>
  </varray>
  <varray name="weights" >
   <v>       0.00694444 </v>
   <v>       0.04166667 </v>
   <v>       0.04166667 </v>
   <v>       0.02083333 </v>
   <v>       0.04166667 </v>
   <v>       0.08333333 </v>
   <v>       0.01388889 </v>
   <v>       0.01388889 </v>
   <v>       0.04166667 </v>
   <v>       0.04166667 </v>
   <v>       0.04166667 </v>
   <v>       0.04166667 </v>
   <v>       0.04166667 </v>
   <v>       0.08333333 </v>
   <v>       0.08333333 </v>
   <v>       0.08333333 </v>
   <v>       0.02777778 </v>
   <v>       0.00694444 </v>
   <v>       0.04166667 </v>
   <v>       0.04166667 </v>
   <v>       0.02083333 </v>
   <v>       0.04166667 </v>
   <v>       0.08333333 </v>
   <v>       0.01388889 </v>
  </varray>
  <varray name="tetrahedronlist"  type="int" >
   <v type="int" >        4        1        2        2        9 </v>
   <v type="int" >        4        2        2        5        9 </v>
   <v type="int" >        4        2        5        9       14 </v>
   <v type="int" >        4        1        2        8        9 </v>
   <v type="int" >        8        2        8        9       13 </v>
   <v type="int" >        8        2        9       13       14 </v>
   <v type="int" >        4        2        3        5       10 </v>
   <v type="int" >        4        3        5        6       10 </v>
   <v type="int" >        4        5        6       10       15 </v>
   <v type="int" >        4        2        5        9       10 </v>
   <v type="int" >        4        5        9       10       14 </v>
   <v type="int" >        4        5       10       14       15 </v>
   <v type="int" >        8        3        4        6       11 </v>
   <v type="int" >        4        4        6        6       11 </v>
   <v type="int" >        4        6        6       11       16 </v>
   <v type="int" >        4        3        6       10       11 </v>
   <v type="int" >        4        6       10       11       15 </v>
   <v type="int" >        8        6       11       15       16 </v>
   <v type="int" >        4        3        4        6       12 </v>
   <v type="int" >        4        3        5        6       12 </v>
   <v type="int" >        4        5        6       12       14 </v>
   <v type="int" >        4        4        6       11       12 </v>
   <v type="int" >        4        6       11       12       16 </v>
   <v type="int" >        4        6       12       14       16 </v>
   <v type="int" >        4        2        3        5       13 </v>
   <v type="int" >        4        2        2        5       13 </v>
   <v type="int" >        4        2        5        9       13 </v>
   <v type="int" >        4        3        5       12       13 </v>
   <v type="int" >        4        5       12       13       14 </v>
   <v type="int" >        4        5        9       13       14 </v>
   <v type="int" >        4        1        2        2        8 </v>
   <v type="int" >        4        2        2        8       13 </v>
   <v type="int" >        8        2        3        5       14 </v>
   <v type="int" >        8        3        5        6       14 </v>
   <v type="int" >        4        3        6       14       16 </v>
   <v type="int" >        4        2        3       13       14 </v>
   <v type="int" >        4        3       12       13       14 </v>
   <v type="int" >        4        3       12       14       16 </v>
   <v type="int" >        4        5        6        6       15 </v>
   <v type="int" >        8        6        6        7       15 </v>
   <v type="int" >        8        6        7       15       17 </v>
   <v type="int" >        4        5        6       14       15 </v>
   <v type="int" >        8        6       14       15       16 </v>
   <v type="int" >       16        6       15       16       17 </v>
   <v type="int" >        8        6        6        7       16 </v>
   <v type="int" >        8        6        7       15       16 </v>
   <v type="int" >        8        7       15       16       17 </v>
   <v type="int" >        4        5        6        6       14 </v>
   <v type="int" >        4        3        6       10       14 </v>
   <v type="int" >        4        6        6       14       16 </v>
   <v type="int" >        4        6       10       14       15 </v>
   <v type="int" >        4        2        3        5        9 </v>
   <v type="int" >        4        3        5        9       14 </v>
   <v type="int" >        4        3        9       10       14 </v>
   <v type="int" >        4        3        4        6       16 </v>
   <v type="int" >        4        4        6        6       16 </v>
   <v type="int" >        4        4        6       15       16 </v>
   <v type="int" >        4        3        4       12       16 </v>
   <v type="int" >        4        4       11       12       16 </v>
   <v type="int" >        4        4       11       15       16 </v>
   <v type="int" >        8        6        6        7       17 </v>
   <v type="int" >        8        6        6       16       17 </v>
   <v type="int" >        4        4        6        6       15 </v>
   <v type="int" >        4        4        6       11       15 </v>
   <v type="int" >        4        3        4        6       10 </v>
   <v type="int" >        4        4        6       10       15 </v>
   <v type="int" >        4        4       10       11       15 </v>
   <v type="int" >        4        3        4        6       15 </v>
   <v type="int" >        4        3        5        6       15 </v>
   <v type="int" >        4        3        5       14       15 </v>
   <v type="int" >        4        3        4       11       15 </v>
   <v type="int" >        4        3       10       11       15 </v>
   <v type="int" >        4        3       10       14       15 </v>
   <v type="int" >        4        5        6        6       16 </v>
   <v type="int" >        4        3        5        6       16 </v>
   <v type="int" >        4        3        5       12       16 </v>
   <v type="int" >        4        5        6       15       16 </v>
   <v type="int" >        4        5       14       15       16 </v>
   <v type="int" >        4        5       12       14       16 </v>
   <v type="int" >        4        3        6       11       16 </v>
   <v type="int" >        4        3       11       12       16 </v>
   <v type="int" >        4        2        2        5       14 </v>
   <v type="int" >        4        2        2       13       14 </v>
   <v type="int" >        4        2        3       10       14 </v>
   <v type="int" >        4        2        9       10       14 </v>
   <v type="int" >        4        2        3        5       12 </v>
   <v type="int" >        4        2        5       12       14 </v>
   <v type="int" >        4        2       12       13       14 </v>
   <v type="int" >        4        1        2        2       13 </v>
   <v type="int" >        4        1        2        9       13 </v>
   <v type="int" >        4        1        8        9       13 </v>
   <v type="int" >        8        8        9       13       19 </v>
   <v type="int" >        8        9       13       14       19 </v>
   <v type="int" >        4       13       14       19       22 </v>
   <v type="int" >        4        8       13       18       19 </v>
   <v type="int" >        4       13       18       19       19 </v>
   <v type="int" >        4       13       19       19       22 </v>
   <v type="int" >        4        9       10       14       20 </v>
   <v type="int" >        4       10       14       15       20 </v>
   <v type="int" >        4       14       15       20       23 </v>
   <v type="int" >        4        9       14       19       20 </v>
   <v type="int" >        8       14       19       20       22 </v>
   <v type="int" >        8       14       20       22       23 </v>
   <v type="int" >        4       10       11       15       21 </v>
   <v type="int" >        4       11       15       16       21 </v>
   <v type="int" >        4       15       16       21       23 </v>
   <v type="int" >        4       10       15       20       21 </v>
   <v type="int" >        4       15       20       21       23 </v>
   <v type="int" >        4       15       21       23       23 </v>
   <v type="int" >        4       11       12       16       20 </v>
   <v type="int" >        4       12       14       16       20 </v>
   <v type="int" >        4       14       16       20       22 </v>
   <v type="int" >        4       11       16       20       21 </v>
   <v type="int" >        4       16       20       21       23 </v>
   <v type="int" >        4       16       20       22       23 </v>
   <v type="int" >        4       12       13       14       19 </v>
   <v type="int" >        4        9       14       19       19 </v>
   <v type="int" >        4       12       14       19       20 </v>
   <v type="int" >        4       14       19       19       22 </v>
   <v type="int" >        4        8        9       13       18 </v>
   <v type="int" >        4        9       13       18       19 </v>
   <v type="int" >        4        9       18       19       19 </v>
   <v type="int" >        4       12       13       14       22 </v>
   <v type="int" >        4       12       14       16       22 </v>
   <v type="int" >        4       12       16       22       23 </v>
   <v type="int" >        4       12       13       19       22 </v>
   <v type="int" >        4       12       19       20       22 </v>
   <v type="int" >        4       12       20       22       23 </v>
   <v type="int" >        8       14       15       16       23 </v>
   <v type="int" >       16       15       16       17       23 </v>
   <v type="int" >        8       16       17       23       24 </v>
   <v type="int" >        4       14       16       22       23 </v>
   <v type="int" >        4       16       22       23       23 </v>
   <v type="int" >        8       16       23       23       24 </v>
   <v type="int" >        8       15       17       23       23 </v>
   <v type="int" >        8       17       23       23       24 </v>
   <v type="int" >        4       14       15       16       22 </v>
   <v type="int" >        4       10       14       15       22 </v>
   <v type="int" >        4       10       15       20       22 </v>
   <v type="int" >        4       15       16       22       23 </v>
   <v type="int" >        4       15       22       23       23 </v>
   <v type="int" >        4       15       20       22       23 </v>
   <v type="int" >        4        9       10       14       19 </v>
   <v type="int" >        4       10       14       19       22 </v>
   <v type="int" >        4       10       19       20       22 </v>
   <v type="int" >        4       11       12       16       23 </v>
   <v type="int" >        8       11       15       16       23 </v>
   <v type="int" >        4       11       15       23       23 </v>
   <v type="int" >        4       11       12       20       23 </v>
   <v type="int" >        8       11       20       21       23 </v>
   <v type="int" >        4       11       21       23       23 </v>
   <v type="int" >        8       15       16       17       24 </v>
   <v type="int" >        8       15       16       23       24 </v>
   <v type="int" >        8       15       23       23       24 </v>
   <v type="int" >        4       11       16       21       23 </v>
   <v type="int" >        4       16       21       23       23 </v>
   <v type="int" >        4       10       11       15       20 </v>
   <v type="int" >        4       11       15       20       23 </v>
   <v type="int" >        4       10       11       15       23 </v>
   <v type="int" >        4       10       14       15       23 </v>
   <v type="int" >        4       10       14       22       23 </v>
   <v type="int" >        4       10       11       21       23 </v>
   <v type="int" >        4       10       20       21       23 </v>
   <v type="int" >        4       10       20       22       23 </v>
   <v type="int" >        4       12       14       16       23 </v>
   <v type="int" >        4       12       14       20       23 </v>
   <v type="int" >        4       14       15       23       23 </v>
   <v type="int" >        4       14       22       23       23 </v>
   <v type="int" >        4       11       12       16       21 </v>
   <v type="int" >        4       12       16       21       23 </v>
   <v type="int" >        4       12       20       21       23 </v>
   <v type="int" >        4        9       10       14       22 </v>
   <v type="int" >        4        9       13       14       22 </v>
   <v type="int" >        4        9       13       19       22 </v>
   <v type="int" >        4        9       10       20       22 </v>
   <v type="int" >        4        9       19       20       22 </v>
   <v type="int" >        4        9       19       19       22 </v>
   <v type="int" >        4       12       13       14       20 </v>
   <v type="int" >        4       13       14       20       22 </v>
   <v type="int" >        4       13       19       20       22 </v>
   <v type="int" >        4        8        9       19       19 </v>
   <v type="int" >        4        8       18       19       19 </v>
  </varray>
  <i name="volumeweight">      0.00115741 </i>
 </kpoints>
 <parameters>
  <separator name="general" >
   <i type="string" name="SYSTEM">unknown system</i>
   <i type="logical" name="LCOMPAT"> F  </i>
  </separator>
  <separator name="electronic" >
   <i type="string" name="PREC">accura</i>
   <i name="ENMAX">    500.00000000</i>
   <i name="ENAUG">    605.39200000</i>
   <i name="EDIFF">      0.00001000</i>
   <i type="int" name="IALGO">    38</i>
   <i type="int" name="IWAVPR">    10</i>
   <i type="int" name="NBANDS">    72</i>
   <i name="NELECT">    121.00000000</i>
   <i type="int" name="TURBO">     0</i>
   <i type="int" name="IRESTART">     0</i>
   <i type="int" name="NREBOOT">     0</i>
   <i type="int" name="NMIN">     0</i>
   <i name="EREF">      0.00000000</i>
   <separator name="electronic smearing" >
    <i type="int" name="ISMEAR">    -5</i>
    <i name="SIGMA">      0.20000000</i>
    <i name="KSPACING">      0.50000000</i>
    <i type="logical" name="KGAMMA"> T  </i>
   </separator>
   <separator name="electronic projectors" >
    <i type="logical" name="LREAL"> F  </i>
    <v name="ROPT">      0.00000000      0.00000000      0.00000000      0.00000000</v>
    <i type="int" name="LMAXPAW">  -100</i>
    <i type="int" name="LMAXMIX">     2</i>
    <i type="logical" name="NLSPLINE"> F  </i>
   </separator>
   <separator name="electronic startup" >
    <i type="int" name="ISTART">     1</i>
    <i type="int" name="ICHARG">     0</i>
    <i type="int" name="INIWAV">     1</i>
   </separator>
   <separator name="electronic spin" >
    <i type="int" name="ISPIN">     1</i>
    <i type="logical" name="LNONCOLLINEAR"> F  </i>
    <v name="MAGMOM">      1.00000000      1.00000000      1.00000000      1.00000000      1.00000000      1.00000000      1.00000000      1.00000000      1.00000000      1.00000000      1.00000000      1.00000000      1.00000000      1.00000000      1.00000000</v>
    <i name="NUPDOWN">     -1.00000000</i>
    <i type="logical" name="LSORBIT"> F  </i>
    <v name="SAXIS">      0.00000000      0.00000000      1.00000000</v>
    <i type="logical" name="LSPIRAL"> F  </i>
    <v name="QSPIRAL">      0.00000000      0.00000000      0.00000000</v>
    <i type="logical" name="LZEROZ"> F  </i>
   </separator>
   <separator name="electronic exchange-correlation" >
    <i type="logical" name="LASPH"> F  </i>
    <i type="logical" name="LMETAGGA"> F  </i>
   </separator>
   <separator name="electronic convergence" >
    <i type="int" name="NELM">    60</i>
    <i type="int" name="NELMDL">     0</i>
    <i type="int" name="NELMIN">     2</i>
    <i name="ENINI">    500.00000000</i>
    <separator name="electronic convergence detail" >
     <i type="logical" name="LDIAG"> T  </i>
     <i type="logical" name="LSUBROT"> F  </i>
     <i name="WEIMIN">      0.00000000</i>
     <i name="EBREAK">      0.00000003</i>
     <i name="DEPER">      0.30000000</i>
     <i type="int" name="NRMM">     4</i>
     <i name="TIME">      0.40000000</i>
    </separator>
   </separator>
   <separator name="electronic mixer" >
    <i name="AMIX">      0.40000000</i>
    <i name="BMIX">      1.00000000</i>
    <i name="AMIN">      0.10000000</i>
    <i name="AMIX_MAG">      1.60000000</i>
    <i name="BMIX_MAG">      1.00000000</i>
    <separator name="electronic mixer details" >
     <i type="int" name="IMIX">     4</i>
     <i type="logical" name="MIXFIRST"> F  </i>
     <i type="int" name="MAXMIX">   -45</i>
     <i name="WC">    100.00000000</i>
     <i type="int" name="INIMIX">     1</i>
     <i type="int" name="MIXPRE">     1</i>
     <i type="int" name="MREMOVE">     5</i>
    </separator>
   </separator>
   <separator name="electronic dipolcorrection" >
    <i type="logical" name="LDIPOL"> F  </i>
    <i type="logical" name="LMONO"> F  </i>
    <i type="int" name="IDIPOL">     0</i>
    <i name="EPSILON">      1.00000000</i>
    <v name="DIPOL">   -100.00000000   -100.00000000   -100.00000000</v>
    <i name="EFIELD">      0.00000000</i>
   </separator>
  </separator>
  <separator name="grids" >
   <i type="int" name="NGX">    42</i>
   <i type="int" name="NGY">    42</i>
   <i type="int" name="NGZ">    50</i>
   <i type="int" name="NGXF">    84</i>
   <i type="int" name="NGYF">    84</i>
   <i type="int" name="NGZF">   100</i>
   <i type="logical" name="ADDGRID"> F  </i>
  </separator>
  <separator name="ionic" >
   <i type="int" name="NSW">     0</i>
   <i type="int" name="IBRION">    -1</i>
   <i type="int" name="MDALGO">     0</i>
   <i type="int" name="ISIF">     2</i>
   <i name="PSTRESS">      0.00000000</i>
   <i name="EDIFFG">     -0.01000000</i>
   <i type="int" name="NFREE">     0</i>
   <i name="POTIM">      0.50000000</i>
   <i name="SMASS">     -3.00000000</i>
   <i name="SCALEE">      1.00000000</i>
  </separator>
  <separator name="ionic md" >
   <i name="TEBEG">      0.00010000</i>
   <i name="TEEND">      0.00010000</i>
   <i type="int" name="NBLOCK">     1</i>
   <i type="int" name="KBLOCK">     1</i>
   <i type="int" name="NPACO">   256</i>
   <i name="APACO">     16.00000000</i>
  </separator>
  <separator name="symmetry" >
   <i type="int" name="ISYM">     2</i>
   <i name="SYMPREC">      0.00001000</i>
  </separator>
  <separator name="dos" >
   <i type="int" name="LORBIT">     0</i>
   <v name="RWIGS">     -1.00000000     -1.00000000     -1.00000000     -1.00000000</v>
   <i type="int" name="NEDOS">   301</i>
   <i name="EMIN">     10.00000000</i>
   <i name="EMAX">    -10.00000000</i>
   <i name="EFERMI">      0.00000000</i>
  </separator>
  <separator name="writing" >
   <i type="int" name="NWRITE">     2</i>
   <i type="logical" name="LWAVE"> T  </i>
   <i type="logical" name="LDOWNSAMPLE"> F  </i>
   <i type="logical" name="LCHARG"> T  </i>
   <i type="logical" name="LPARD"> F  </i>
   <i type="logical" name="LVTOT"> F  </i>
   <i type="logical" name="LVHAR"> F  </i>
   <i type="logical" name="LELF"> F  </i>
   <i type="logical" name="LOPTICS"> F  </i>
   <v name="STM">      0.00000000      0.00000000      0.00000000      0.00000000      0.00000000      0.00000000      0.00000000</v>
  </separator>
  <separator name="performance" >
   <i type="int" name="NPAR">     4</i>
   <i type="int" name="NSIM">     4</i>
   <i type="int" name="NBLK">    -1</i>
   <i type="logical" name="LPLANE"> T  </i>
   <i type="logical" name="LSCALAPACK"> T  </i>
   <i type="logical" name="LSCAAWARE"> F  </i>
   <i type="logical" name="LSCALU"> F  </i>
   <i type="logical" name="LASYNC"> F  </i>
   <i type="logical" name="LORBITALREAL"> F  </i>
  </separator>
  <separator name="miscellaneous" >
   <i type="int" name="IDIOT">     3</i>
   <i type="int" name="ISPECIAL">     0</i>
   <i type="logical" name="LMUSIC"> F  </i>
   <v name="POMASS">     92.91000000     16.00000000     87.62000000     47.88000000</v>
   <v name="DARWINR">      0.00000000      0.00000000      0.00000000      0.00000000</v>
   <v name="DARWINV">      1.00000000      1.00000000      1.00000000      1.00000000</v>
   <i type="logical" name="LCORR"> T  </i>
  </separator>
  <i type="logical" name="GGA_COMPAT"> T  </i>
  <i type="logical" name="LBERRY"> F  </i>
  <i type="int" name="ICORELEVEL">     0</i>
  <i type="logical" name="LDAU"> F  </i>
  <i type="int" name="I_CONSTRAINED_M">     0</i>
  <separator name="electronic exchange-correlation" >
   <i type="string" name="GGA">--</i>
   <i type="int" name="VOSKOWN">     0</i>
   <i type="logical" name="LHFCALC"> F  </i>
   <i type="string" name="PRECFOCK"></i>
   <i type="logical" name="LSYMGRAD"> F  </i>
   <i type="logical" name="LHFONE"> F  </i>
   <i type="logical" name="LRHFCALC"> F  </i>
   <i type="logical" name="LTHOMAS"> F  </i>
   <i type="logical" name="LMODELHF"> F  </i>
   <i name="ENCUT4O">     -1.00000000</i>
   <i type="int" name="EXXOEP">     0</i>
   <i type="int" name="FOURORBIT">     0</i>
   <i name="AEXX">      0.00000000</i>
   <i name="HFALPHA">      0.00000000</i>
   <i name="MCALPHA">      0.00000000</i>
   <i name="ALDAX">      1.00000000</i>
   <i name="AGGAX">      1.00000000</i>
   <i name="ALDAC">      1.00000000</i>
   <i name="AGGAC">      1.00000000</i>
   <i type="int" name="NKREDX">     1</i>
   <i type="int" name="NKREDY">     1</i>
   <i type="int" name="NKREDZ">     1</i>
   <i type="logical" name="SHIFTRED"> F  </i>
   <i type="logical" name="ODDONLY"> F  </i>
   <i type="logical" name="EVENONLY"> F  </i>
   <i type="int" name="LMAXFOCK">     0</i>
   <i type="int" name="NMAXFOCKAE">     0</i>
   <i type="logical" name="LFOCKAEDFT"> F  </i>
   <i name="HFSCREEN">      0.00000000</i>
   <i name="HFSCREENC">      0.00000000</i>
   <i type="int" name="NBANDSGWLOW">     0</i>
  </separator>
  <separator name="vdW DFT" >
   <i type="logical" name="LUSE_VDW"> F  </i>
   <i name="Zab_VDW">     -0.84910000</i>
   <i name="PARAM1">      0.12340000</i>
   <i name="PARAM2">      1.00000000</i>
   <i name="PARAM3">      0.00000000</i>
  </separator>
  <separator name="model GW" >
   <i type="int" name="MODEL_GW">     0</i>
   <i name="MODEL_EPS0">      7.57457628</i>
   <i name="MODEL_ALPHA">      1.00000000</i>
  </separator>
  <separator name="linear response parameters" >
   <i type="logical" name="LEPSILON"> F  </i>
   <i type="logical" name="LRPA"> F  </i>
   <i type="logical" name="LNABLA"> F  </i>
   <i type="logical" name="LVEL"> F  </i>
   <i type="int" name="KINTER">     0</i>
   <i name="CSHIFT">      0.10000000</i>
   <i name="OMEGAMAX">     -1.00000000</i>
   <i name="DEG_THRESHOLD">      0.00200000</i>
   <i name="RTIME">     -0.10000000</i>
   <i name="WPLASMAI">      0.00000000</i>
   <v name="DFIELD">      0.00000000      0.00000000      0.00000000</v>
   <v name="WPLASMA">      0.00000000      0.00000000      0.00000000      0.00000000      0.00000000      0.00000000      0.00000000      0.00000000      0.00000000</v>
  </separator>
  <separator name="orbital magnetization" >
   <i type="logical" name="NUCIND"> F  </i>
   <v name="MAGPOS">      0.00000000      0.00000000      0.00000000</v>
   <i type="logical" name="LNICSALL"> T  </i>
   <i type="logical" name="ORBITALMAG"> F  </i>
   <i type="logical" name="LMAGBLOCH"> F  </i>
   <i type="logical" name="LCHIMAG"> F  </i>
   <i type="logical" name="LGAUGE"> T  </i>
   <i type="int" name="MAGATOM">     0</i>
   <v name="MAGDIPOL">      0.00000000      0.00000000      0.00000000</v>
   <v name="AVECCONST">      0.00000000      0.00000000      0.00000000</v>
  </separator>
  <separator name="response functions" >
   <i type="logical" name="LADDER"> F  </i>
   <i type="logical" name="LRPAFORCE"> F  </i>
   <i type="logical" name="LFXC"> F  </i>
   <i type="logical" name="LHARTREE"> T  </i>
   <i type="int" name="IBSE">     0</i>
   <v type="int" name="KPOINT">    -1     0     0     0</v>
   <i type="logical" name="LTCTE"> F  </i>
   <i type="logical" name="LTETE"> F  </i>
   <i type="logical" name="LTRIPLET"> F  </i>
   <i type="logical" name="LFXCEPS"> F  </i>
   <i type="logical" name="LFXHEG"> F  </i>
   <i type="int" name="NATURALO">     2</i>
   <i type="logical" name="L2ORDER"> F  </i>
   <i type="logical" name="LMP2LT"> F  </i>
   <i type="logical" name="LUSEW"> F  </i>
   <i name="ENCUTGW">     -2.00000000</i>
   <i name="ENCUTGWSOFT">     -2.00000000</i>
   <i name="ENCUTLF">     -1.00000000</i>
   <i type="int" name="LMAXMP2">    -1</i>
   <i name="SCISSOR">      0.00000000</i>
   <i type="int" name="NOMEGA">     0</i>
   <i type="int" name="NOMEGAR">     0</i>
   <i type="int" name="NBANDSGW">    -1</i>
   <i type="int" name="NBANDSO">    -1</i>
   <i type="int" name="NBANDSV">    -1</i>
   <i type="int" name="NELM">     1</i>
   <i type="int" name="NELMHF">     1</i>
   <i type="int" name="DIM">     3</i>
   <i type="int" name="ANTIRES">     0</i>
   <i name="OMEGAMAX">    -30.00000000</i>
   <i name="OMEGAMIN">    -30.00000000</i>
   <i name="OMEGATL">   -200.00000000</i>
   <i type="int" name="OMEGAGRID">   140</i>
   <i name="CSHIFT">     -0.10000000</i>
   <i type="logical" name="SELFENERGY"> F  </i>
   <i type="logical" name="LSPECTRAL"> F  </i>
   <i type="logical" name="LSPECTRALGW"> F  </i>
   <i type="logical" name="LSINGLES"> F  </i>
   <i type="logical" name="LFERMIGW"> F  </i>
   <i type="logical" name="ODDONLYGW"> F  </i>
   <i type="logical" name="EVENONLYGW"> F  </i>
   <i type="int" name="NKREDLFX">     1</i>
   <i type="int" name="NKREDLFY">     1</i>
   <i type="int" name="NKREDLFZ">     1</i>
   <i type="int" name="MAXMEM">  2800</i>
   <i type="int" name="TELESCOPE">     0</i>
   <i type="int" name="TAUPAR">     1</i>
   <i type="int" name="OMEGAPAR">    -1</i>
   <i name="LAMBDA">      1.00000000</i>
  </separator>
  <separator name="External order field" >
   <i name="OFIELD_KAPPA">      0.00000000</i>
   <v name="OFIELD_K">      0.00000000      0.00000000      0.00000000</v>
   <i name="OFIELD_Q6_NEAR">      0.00000000</i>
   <i name="OFIELD_Q6_FAR">      0.00000000</i>
   <i name="OFIELD_A">      0.00000000</i>
  </separator>
 </parameters>
 <atominfo>
  <atoms>      15 </atoms>
  <types>       4 </types>
  <array name="atoms" >
   <dimension dim="1">ion</dimension>
   <field type="string">element</field>
   <field type="int">atomtype</field>
   <set>
    <rc><c>Nb</c><c>   1</c></rc>
    <rc><c>O </c><c>   2</c></rc>
    <rc><c>O </c><c>   2</c></rc>
    <rc><c>O </c><c>   2</c></rc>
    <rc><c>O </c><c>   2</c></rc>
    <rc><c>O </c><c>   2</c></rc>
    <rc><c>O </c><c>   2</c></rc>
    <rc><c>O </c><c>   2</c></rc>
    <rc><c>O </c><c>   2</c></rc>
    <rc><c>O </c><c>   2</c></rc>
    <rc><c>Sr</c><c>   3</c></rc>
    <rc><c>Sr</c><c>   3</c></rc>
    <rc><c>Sr</c><c>   3</c></rc>
    <rc><c>Ti</c><c>   4</c></rc>
    <rc><c>Ti</c><c>   4</c></rc>
   </set>
  </array>
  <array name="atomtypes" >
   <dimension dim="1">type</dimension>
   <field type="int">atomspertype</field>
   <field type="string">element</field>
   <field>mass</field>
   <field>valence</field>
   <field type="string">pseudopotential</field>
   <set>
    <rc><c>   1</c><c>Nb</c><c>     92.91000000</c><c>     13.00000000</c><c>  PAW_PBE Nb_sv 25May2007               </c></rc>
    <rc><c>   9</c><c>O </c><c>     16.00000000</c><c>      6.00000000</c><c>  PAW_PBE O 08Apr2002                   </c></rc>
    <rc><c>   3</c><c>Sr</c><c>     87.62000000</c><c>     10.00000000</c><c>  PAW_PBE Sr_sv 07Sep2000               </c></rc>
    <rc><c>   2</c><c>Ti</c><c>     47.88000000</c><c>     12.00000000</c><c>  PAW_PBE Ti_sv 26Sep2005               </c></rc>
   </set>
  </array>
 </atominfo>
 <structure name="initialpos" >
  <crystal>
   <varray name="basis" >
    <v>      -3.98093957      -3.98093957       0.00000000 </v>
    <v>       3.98093957       0.00000000      -3.98093957 </v>
    <v>       3.98295983      -3.98295983       3.98295983 </v>
   </varray>
   <i name="volume">    189.36440701 </i>
   <varray name="rec_basis" >
    <v>      -0.08373233      -0.16746465      -0.08373233 </v>
    <v>       0.08373233      -0.08373233      -0.16746465 </v>
    <v>       0.08368986      -0.08368986       0.08368986 </v>
   </varray>
  </crystal>
  <varray name="positions" >
   <v>       0.00000000       0.00000000       0.50000000 </v>
   <v>       0.83259046       0.16740954       0.66787556 </v>
   <v>       0.66518092       0.83259046       0.33212444 </v>
   <v>       0.83259046       0.66518092       0.66787556 </v>
   <v>       0.50000000       0.50000000       0.00000000 </v>
   <v>       0.33481908       0.16740954       0.66787556 </v>
   <v>       0.50000000       0.00000000       0.00000000 </v>
   <v>       0.16740954       0.83259046       0.33212444 </v>
   <v>       0.00000000       0.50000000       0.00000000 </v>
   <v>       0.16740954       0.33481908       0.33212444 </v>
   <v>       0.33333333       0.66666667       0.67238377 </v>
   <v>       0.00000000       0.00000000       0.00000000 </v>
   <v>       0.66666667       0.33333333       0.32761623 </v>
   <v>       0.66666667       0.33333333       0.83985527 </v>
   <v>       0.33333333       0.66666667       0.16014473 </v>
  </varray>
 </structure>
 <calculation>
  <scstep>
   <time name="dav">    1.20    1.21</time>
   <time name="total">    1.33    1.33</time>
   <energy>
    <i name="alphaZ">    671.69977626 </i>
    <i name="ewald">  -8668.81335110 </i>
    <i name="hartreedc">  -2592.99854528 </i>
    <i name="XCdc">    543.28926573 </i>
    <i name="pawpsdc">  13719.45029213 </i>
    <i name="pawaedc"> -13645.88446969 </i>
    <i name="eentropy">      0.00000000 </i>
    <i name="bandstr">  -1299.90731088 </i>
    <i name="atom">  11151.65365166 </i>
    <i name="e_fr_energy">   -121.51069117 </i>
    <i name="e_wo_entrp">   -121.51069117 </i>
    <i name="e_0_energy">   -121.51069117 </i>
   </energy>
  </scstep>
  <scstep>
   <time name="dav">    1.47    1.47</time>
   <time name="total">    1.59    1.60</time>
   <energy>
    <i name="e_fr_energy">   -121.51068641 </i>
    <i name="e_wo_entrp">   -121.51068641 </i>
    <i name="e_0_energy">   -121.51068641 </i>
   </energy>
  </scstep>
  <scstep>
   <time name="dav">    1.14    1.15</time>
   <time name="total">    1.19    1.20</time>
   <energy>
    <i name="alphaZ">    671.69977626 </i>
    <i name="ewald">  -8668.81335110 </i>
    <i name="hartreedc">  -2593.00336175 </i>
    <i name="XCdc">    543.29122171 </i>
    <i name="pawpsdc">  13716.93561222 </i>
    <i name="pawaedc"> -13643.35972319 </i>
    <i name="eentropy">      0.00000000 </i>
    <i name="bandstr">  -1299.91450896 </i>
    <i name="atom">  11151.65365166 </i>
    <i name="e_fr_energy">   -121.51068315 </i>
    <i name="e_wo_entrp">   -121.51068315 </i>
    <i name="e_0_energy">   -121.51068315 </i>
   </energy>
  </scstep>
  <structure>
   <crystal>
    <varray name="basis" >
     <v>      -3.98093957      -3.98093957       0.00000000 </v>
     <v>       3.98093957       0.00000000      -3.98093957 </v>
     <v>       3.98295983      -3.98295983       3.98295983 </v>
    </varray>
    <i name="volume">    189.36440701 </i>
    <varray name="rec_basis" >
     <v>      -0.08373233      -0.16746465      -0.08373233 </v>
     <v>       0.08373233      -0.08373233      -0.16746465 </v>
     <v>       0.08368986      -0.08368986       0.08368986 </v>
    </varray>
   </crystal>
   <varray name="positions" >
    <v>       0.00000000       0.00000000       0.50000000 </v>
    <v>       0.83259046       0.16740954       0.66787556 </v>
    <v>       0.66518092       0.83259046       0.33212444 </v>
    <v>       0.83259046       0.66518092       0.66787556 </v>
    <v>       0.50000000       0.50000000       0.00000000 </v>
    <v>       0.33481908       0.16740954       0.66787556 </v>
    <v>       0.50000000       0.00000000       0.00000000 </v>
    <v>       0.16740954       0.83259046       0.33212444 </v>
    <v>       0.00000000       0.50000000       0.00000000 </v>
    <v>       0.16740954       0.33481908       0.33212444 </v>
    <v>       0.33333333       0.66666667       0.67238377 </v>
    <v>       0.00000000       0.00000000       0.00000000 </v>
    <v>       0.66666667       0.33333333       0.32761623 </v>
    <v>       0.66666667       0.33333333       0.83985527 </v>
    <v>       0.33333333       0.66666667       0.16014473 </v>
   </varray>
  </structure>
  <varray name="forces" >
   <v>       0.00000000       0.00000000      -0.00000000 </v>
   <v>      -0.00138876       0.00075351      -0.00075351 </v>
   <v>       0.00075351      -0.00138876       0.00075351 </v>
   <v>      -0.00075351       0.00075351      -0.00138876 </v>
   <v>       0.00000000       0.00000000       0.00000000 </v>
   <v>      -0.00075351       0.00138876      -0.00075351 </v>
   <v>       0.00000000       0.00000000      -0.00000000 </v>
   <v>       0.00138876      -0.00075351       0.00075351 </v>
   <v>       0.00000000       0.00000000      -0.00000000 </v>
   <v>       0.00075351      -0.00075351       0.00138876 </v>
   <v>      -0.00129110       0.00129110      -0.00129110 </v>
   <v>       0.00000000       0.00000000      -0.00000000 </v>
   <v>       0.00129110      -0.00129110       0.00129110 </v>
   <v>       0.00232935      -0.00232935       0.00232935 </v>
   <v>      -0.00232935       0.00232935      -0.00232935 </v>
  </varray>
  <varray name="stress" >
   <v>       0.96849371      -0.22397145       0.22397145 </v>
   <v>      -0.22397145       0.96849371      -0.22397145 </v>
   <v>       0.22397145      -0.22397145       0.96849371 </v>
  </varray>
  <energy>
   <i name="e_fr_energy">   -121.51068315 </i>
   <i name="e_wo_entrp">   -121.51068315 </i>
   <i name="e_0_energy">      0.00000000 </i>
  </energy>
  <time name="totalsc">    6.20    7.51</time>
  <eigenvalues>
   <array>
    <dimension dim="1">band</dimension>
    <dimension dim="2">kpoint</dimension>
    <dimension dim="3">spin</dimension>
    <field>eigene</field>
    <field>occ</field>
    <set>
     <set comment="spin 1">
      <set comment="kpoint 1">
       <r>  -51.8405    1.0000 </r>
       <r>  -51.8384    1.0000 </r>
       <r>  -50.3279    1.0000 </r>
       <r>  -28.9601    1.0000 </r>
       <r>  -28.9363    1.0000 </r>
       <r>  -28.8950    1.0000 </r>
       <r>  -28.1403    1.0000 </r>
       <r>  -28.1403    1.0000 </r>
       <r>  -28.1361    1.0000 </r>
       <r>  -28.1076    1.0000 </r>
       <r>  -28.1076    1.0000 </r>
       <r>  -28.1063    1.0000 </r>
       <r>  -26.5308    1.0000 </r>
       <r>  -26.5308    1.0000 </r>
       <r>  -26.5293    1.0000 </r>
       <r>  -13.2131    1.0000 </r>
       <r>  -12.5689    1.0000 </r>
       <r>  -12.5314    1.0000 </r>
       <r>  -12.5103    1.0000 </r>
       <r>  -12.5103    1.0000 </r>
       <r>  -12.0896    1.0000 </r>
       <r>  -12.0896    1.0000 </r>
       <r>  -12.0765    1.0000 </r>
       <r>  -12.0765    1.0000 </r>
       <r>  -10.9740    1.0000 </r>
       <r>  -10.9740    1.0000 </r>
       <r>  -10.9500    1.0000 </r>
       <r>  -10.9500    1.0000 </r>
       <r>  -10.9303    1.0000 </r>
       <r>  -10.8850    1.0000 </r>
       <r>  -10.8850    1.0000 </r>
       <r>  -10.6891    1.0000 </r>
       <r>  -10.6320    1.0000 </r>
       <r>   -0.2287    1.0000 </r>
       <r>   -0.0685    1.0000 </r>
       <r>   -0.0685    1.0000 </r>
       <r>    0.1886    1.0000 </r>
       <r>    0.3901    1.0000 </r>
       <r>    0.3901    1.0000 </r>
       <r>    0.4069    1.0000 </r>
       <r>    0.6417    1.0000 </r>
       <r>    0.7149    1.0000 </r>
       <r>    0.7149    1.0000 </r>
       <r>    0.8521    1.0000 </r>
       <r>    0.8521    1.0000 </r>
       <r>    1.4405    1.0000 </r>
       <r>    1.4405    1.0000 </r>
       <r>    1.4423    1.0000 </r>
       <r>    2.8613    1.0000 </r>
       <r>    2.8698    1.0000 </r>
       <r>    2.8698    1.0000 </r>
       <r>    3.3646    1.0000 </r>
       <r>    3.3646    1.0000 </r>
       <r>    3.3699    1.0000 </r>
       <r>    3.3699    1.0000 </r>
       <r>    3.5759    1.0000 </r>
       <r>    3.6139    1.0000 </r>
       <r>    3.6383    1.0000 </r>
       <r>    3.6383    1.0000 </r>
       <r>    3.7632    1.0000 </r>
       <r>    6.1496    1.0000 </r>
       <r>    6.1533    1.1609 </r>
       <r>    6.1533    1.1936 </r>
       <r>    8.2734    0.0000 </r>
       <r>    8.3177    0.0000 </r>
       <r>    8.3177    0.0000 </r>
       <r>    8.4356    0.0000 </r>
       <r>    8.4652    0.0000 </r>
       <r>    8.4652    0.0000 </r>
       <r>    8.8752    0.0000 </r>
       <r>    8.8752    0.0000 </r>
       <r>    9.3284    0.0000 </r>
      </set>
      <set comment="kpoint 2">
       <r>  -51.8404    1.0000 </r>
       <r>  -51.8385    1.0000 </r>
       <r>  -50.3279    1.0000 </r>
       <r>  -28.9589    1.0000 </r>
       <r>  -28.9375    1.0000 </r>
       <r>  -28.8961    1.0000 </r>
       <r>  -28.1408    1.0000 </r>
       <r>  -28.1401    1.0000 </r>
       <r>  -28.1369    1.0000 </r>
       <r>  -28.1071    1.0000 </r>
       <r>  -28.1063    1.0000 </r>
       <r>  -28.1057    1.0000 </r>
       <r>  -26.5309    1.0000 </r>
       <r>  -26.5302    1.0000 </r>
       <r>  -26.5294    1.0000 </r>
       <r>  -13.2092    1.0000 </r>
       <r>  -12.7086    1.0000 </r>
       <r>  -12.6269    1.0000 </r>
       <r>  -12.5113    1.0000 </r>
       <r>  -12.4132    1.0000 </r>
       <r>  -12.2061    1.0000 </r>
       <r>  -12.1593    1.0000 </r>
       <r>  -12.0612    1.0000 </r>
       <r>  -12.0296    1.0000 </r>
       <r>  -11.0324    1.0000 </r>
       <r>  -10.9914    1.0000 </r>
       <r>  -10.9176    1.0000 </r>
       <r>  -10.9065    1.0000 </r>
       <r>  -10.8512    1.0000 </r>
       <r>  -10.7495    1.0000 </r>
       <r>  -10.7361    1.0000 </r>
       <r>  -10.6746    1.0000 </r>
       <r>  -10.6209    1.0000 </r>
       <r>   -0.3938    1.0000 </r>
       <r>   -0.2063    1.0000 </r>
       <r>   -0.1335    1.0000 </r>
       <r>    0.0703    1.0000 </r>
       <r>    0.1425    1.0000 </r>
       <r>    0.4325    1.0000 </r>
       <r>    0.5533    1.0000 </r>
       <r>    0.8182    1.0000 </r>
       <r>    0.8517    1.0000 </r>
       <r>    0.9401    1.0000 </r>
       <r>    1.0838    1.0000 </r>
       <r>    1.1895    1.0000 </r>
       <r>    1.3425    1.0000 </r>
       <r>    1.4244    1.0000 </r>
       <r>    1.4254    1.0000 </r>
       <r>    2.5357    1.0000 </r>
       <r>    2.5959    1.0000 </r>
       <r>    2.8908    1.0000 </r>
       <r>    3.0963    1.0000 </r>
       <r>    3.1465    1.0000 </r>
       <r>    3.1569    1.0000 </r>
       <r>    3.2091    1.0000 </r>
       <r>    3.3812    1.0000 </r>
       <r>    3.4073    1.0000 </r>
       <r>    3.4605    1.0000 </r>
       <r>    3.6094    1.0000 </r>
       <r>    3.7749    1.0000 </r>
       <r>    6.3132    1.0543 </r>
       <r>    6.4878    0.6439 </r>
       <r>    6.5009    0.5085 </r>
       <r>    8.0587    0.0000 </r>
       <r>    8.2247    0.0000 </r>
       <r>    8.2584    0.0000 </r>
       <r>    8.4936    0.0000 </r>
       <r>    8.5266    0.0000 </r>
       <r>    8.6111    0.0000 </r>
       <r>    9.0217    0.0000 </r>
       <r>    9.2734    0.0000 </r>
       <r>    9.6147    0.0000 </r>
      </set>
      <set comment="kpoint 3">
       <r>  -51.8401    1.0000 </r>
       <r>  -51.8388    1.0000 </r>
       <r>  -50.3279    1.0000 </r>
       <r>  -28.9551    1.0000 </r>
       <r>  -28.9410    1.0000 </r>
       <r>  -28.8988    1.0000 </r>
       <r>  -28.1419    1.0000 </r>
       <r>  -28.1394    1.0000 </r>
       <r>  -28.1374    1.0000 </r>
       <r>  -28.1062    1.0000 </r>
       <r>  -28.1058    1.0000 </r>
       <r>  -28.1037    1.0000 </r>
       <r>  -26.5310    1.0000 </r>
       <r>  -26.5302    1.0000 </r>
       <r>  -26.5286    1.0000 </r>
       <r>  -13.1985    1.0000 </r>
       <r>  -12.9088    1.0000 </r>
       <r>  -12.7060    1.0000 </r>
       <r>  -12.5066    1.0000 </r>
       <r>  -12.3637    1.0000 </r>
       <r>  -12.3197    1.0000 </r>
       <r>  -12.1932    1.0000 </r>
       <r>  -12.1636    1.0000 </r>
       <r>  -12.0626    1.0000 </r>
       <r>  -10.9965    1.0000 </r>
       <r>  -10.8970    1.0000 </r>
       <r>  -10.8926    1.0000 </r>
       <r>  -10.8423    1.0000 </r>
       <r>  -10.6954    1.0000 </r>
       <r>  -10.6671    1.0000 </r>
       <r>  -10.5977    1.0000 </r>
       <r>  -10.5845    1.0000 </r>
       <r>  -10.5470    1.0000 </r>
       <r>   -0.5553    1.0000 </r>
       <r>   -0.3900    1.0000 </r>
       <r>   -0.2366    1.0000 </r>
       <r>   -0.0726    1.0000 </r>
       <r>    0.1894    1.0000 </r>
       <r>    0.6059    1.0000 </r>
       <r>    0.7089    1.0000 </r>
       <r>    0.8316    1.0000 </r>
       <r>    1.0760    1.0000 </r>
       <r>    1.0985    1.0000 </r>
       <r>    1.1765    1.0000 </r>
       <r>    1.2323    1.0000 </r>
       <r>    1.3866    1.0000 </r>
       <r>    1.6188    1.0000 </r>
       <r>    1.8978    1.0000 </r>
       <r>    1.9114    1.0000 </r>
       <r>    2.0994    1.0000 </r>
       <r>    2.5449    1.0000 </r>
       <r>    2.7040    1.0000 </r>
       <r>    2.7149    1.0000 </r>
       <r>    2.9649    1.0000 </r>
       <r>    3.0010    1.0000 </r>
       <r>    3.0554    1.0000 </r>
       <r>    3.1095    1.0000 </r>
       <r>    3.1837    1.0000 </r>
       <r>    3.3727    1.0000 </r>
       <r>    3.8695    1.0000 </r>
       <r>    6.7028    0.3007 </r>
       <r>    7.1722   -0.0177 </r>
       <r>    7.1803   -0.0054 </r>
       <r>    7.6601    0.0000 </r>
       <r>    8.1583    0.0000 </r>
       <r>    8.1817    0.0000 </r>
       <r>    8.3902    0.0000 </r>
       <r>    8.4047    0.0000 </r>
       <r>    8.7350    0.0000 </r>
       <r>    9.3910    0.0000 </r>
       <r>    9.8700    0.0000 </r>
       <r>   10.3480    0.0000 </r>
      </set>
      <set comment="kpoint 4">
       <r>  -51.8398    1.0000 </r>
       <r>  -51.8391    1.0000 </r>
       <r>  -50.3279    1.0000 </r>
       <r>  -28.9514    1.0000 </r>
       <r>  -28.9444    1.0000 </r>
       <r>  -28.9003    1.0000 </r>
       <r>  -28.1424    1.0000 </r>
       <r>  -28.1396    1.0000 </r>
       <r>  -28.1366    1.0000 </r>
       <r>  -28.1058    1.0000 </r>
       <r>  -28.1049    1.0000 </r>
       <r>  -28.1039    1.0000 </r>
       <r>  -26.5311    1.0000 </r>
       <r>  -26.5303    1.0000 </r>
       <r>  -26.5280    1.0000 </r>
       <r>  -13.1847    1.0000 </r>
       <r>  -13.0059    1.0000 </r>
       <r>  -12.7241    1.0000 </r>
       <r>  -12.4989    1.0000 </r>
       <r>  -12.3681    1.0000 </r>
       <r>  -12.3677    1.0000 </r>
       <r>  -12.2314    1.0000 </r>
       <r>  -12.1812    1.0000 </r>
       <r>  -12.0913    1.0000 </r>
       <r>  -10.9509    1.0000 </r>
       <r>  -10.8995    1.0000 </r>
       <r>  -10.8496    1.0000 </r>
       <r>  -10.7644    1.0000 </r>
       <r>  -10.7394    1.0000 </r>
       <r>  -10.5958    1.0000 </r>
       <r>  -10.5531    1.0000 </r>
       <r>  -10.5181    1.0000 </r>
       <r>  -10.4872    1.0000 </r>
       <r>   -0.5745    1.0000 </r>
       <r>   -0.5332    1.0000 </r>
       <r>   -0.2794    1.0000 </r>
       <r>    0.0082    1.0000 </r>
       <r>    0.3798    1.0000 </r>
       <r>    0.5092    1.0000 </r>
       <r>    0.7919    1.0000 </r>
       <r>    0.8897    1.0000 </r>
       <r>    1.0640    1.0000 </r>
       <r>    1.2062    1.0000 </r>
       <r>    1.2467    1.0000 </r>
       <r>    1.2711    1.0000 </r>
       <r>    1.4011    1.0000 </r>
       <r>    1.4677    1.0000 </r>
       <r>    1.4876    1.0000 </r>
       <r>    2.1015    1.0000 </r>
       <r>    2.1206    1.0000 </r>
       <r>    2.4339    1.0000 </r>
       <r>    2.4495    1.0000 </r>
       <r>    2.4992    1.0000 </r>
       <r>    2.9209    1.0000 </r>
       <r>    2.9349    1.0000 </r>
       <r>    2.9500    1.0000 </r>
       <r>    3.0025    1.0000 </r>
       <r>    3.1150    1.0000 </r>
       <r>    3.1591    1.0000 </r>
       <r>    3.9039    1.0000 </r>
       <r>    7.1489   -0.0480 </r>
       <r>    7.2214    0.0000 </r>
       <r>    7.8112    0.0000 </r>
       <r>    7.8137    0.0000 </r>
       <r>    7.8563    0.0000 </r>
       <r>    7.8653    0.0000 </r>
       <r>    8.2554    0.0000 </r>
       <r>    8.2676    0.0000 </r>
       <r>    8.7731    0.0000 </r>
       <r>    9.6844    0.0000 </r>
       <r>    9.7093    0.0000 </r>
       <r>   10.4544    0.0000 </r>
      </set>
      <set comment="kpoint 5">
       <r>  -51.8402    1.0000 </r>
       <r>  -51.8387    1.0000 </r>
       <r>  -50.3279    1.0000 </r>
       <r>  -28.9563    1.0000 </r>
       <r>  -28.9398    1.0000 </r>
       <r>  -28.8982    1.0000 </r>
       <r>  -28.1408    1.0000 </r>
       <r>  -28.1400    1.0000 </r>
       <r>  -28.1377    1.0000 </r>
       <r>  -28.1069    1.0000 </r>
       <r>  -28.1057    1.0000 </r>
       <r>  -28.1041    1.0000 </r>
       <r>  -26.5310    1.0000 </r>
       <r>  -26.5296    1.0000 </r>
       <r>  -26.5295    1.0000 </r>
       <r>  -13.1970    1.0000 </r>
       <r>  -12.8392    1.0000 </r>
       <r>  -12.7432    1.0000 </r>
       <r>  -12.4848    1.0000 </r>
       <r>  -12.4094    1.0000 </r>
       <r>  -12.2239    1.0000 </r>
       <r>  -12.2211    1.0000 </r>
       <r>  -12.1020    1.0000 </r>
       <r>  -12.0835    1.0000 </r>
       <r>  -10.9660    1.0000 </r>
       <r>  -10.9616    1.0000 </r>
       <r>  -10.9025    1.0000 </r>
       <r>  -10.8403    1.0000 </r>
       <r>  -10.7402    1.0000 </r>
       <r>  -10.6498    1.0000 </r>
       <r>  -10.6352    1.0000 </r>
       <r>  -10.6210    1.0000 </r>
       <r>  -10.5888    1.0000 </r>
       <r>   -0.5316    1.0000 </r>
       <r>   -0.1871    1.0000 </r>
       <r>   -0.1469    1.0000 </r>
       <r>   -0.1199    1.0000 </r>
       <r>   -0.0060    1.0000 </r>
       <r>    0.5720    1.0000 </r>
       <r>    0.5936    1.0000 </r>
       <r>    0.9305    1.0000 </r>
       <r>    1.0229    1.0000 </r>
       <r>    1.0337    1.0000 </r>
       <r>    1.0765    1.0000 </r>
       <r>    1.2234    1.0000 </r>
       <r>    1.4013    1.0000 </r>
       <r>    1.7566    1.0000 </r>
       <r>    1.7764    1.0000 </r>
       <r>    1.9050    1.0000 </r>
       <r>    2.3209    1.0000 </r>
       <r>    2.6987    1.0000 </r>
       <r>    2.8381    1.0000 </r>
       <r>    2.8676    1.0000 </r>
       <r>    2.9019    1.0000 </r>
       <r>    2.9544    1.0000 </r>
       <r>    2.9908    1.0000 </r>
       <r>    3.1617    1.0000 </r>
       <r>    3.2870    1.0000 </r>
       <r>    3.6906    1.0000 </r>
       <r>    3.7093    1.0000 </r>
       <r>    6.7016    0.4250 </r>
       <r>    6.8250    0.0136 </r>
       <r>    7.0464   -0.0215 </r>
       <r>    7.9589    0.0000 </r>
       <r>    7.9647    0.0000 </r>
       <r>    8.2291    0.0000 </r>
       <r>    8.4444    0.0000 </r>
       <r>    8.5945    0.0000 </r>
       <r>    8.5977    0.0000 </r>
       <r>    9.1907    0.0000 </r>
       <r>    9.8681    0.0000 </r>
       <r>   10.1268    0.0000 </r>
      </set>
      <set comment="kpoint 6">
       <r>  -51.8398    1.0000 </r>
       <r>  -51.8391    1.0000 </r>
       <r>  -50.3279    1.0000 </r>
       <r>  -28.9517    1.0000 </r>
       <r>  -28.9436    1.0000 </r>
       <r>  -28.9008    1.0000 </r>
       <r>  -28.1409    1.0000 </r>
       <r>  -28.1395    1.0000 </r>
       <r>  -28.1374    1.0000 </r>
       <r>  -28.1061    1.0000 </r>
       <r>  -28.1053    1.0000 </r>
       <r>  -28.1039    1.0000 </r>
       <r>  -26.5308    1.0000 </r>
       <r>  -26.5300    1.0000 </r>
       <r>  -26.5287    1.0000 </r>
       <r>  -13.1581    1.0000 </r>
       <r>  -12.9784    1.0000 </r>
       <r>  -12.8344    1.0000 </r>
       <r>  -12.4847    1.0000 </r>
       <r>  -12.3930    1.0000 </r>
       <r>  -12.3230    1.0000 </r>
       <r>  -12.2184    1.0000 </r>
       <r>  -12.1853    1.0000 </r>
       <r>  -12.0766    1.0000 </r>
       <r>  -10.9255    1.0000 </r>
       <r>  -10.8883    1.0000 </r>
       <r>  -10.8655    1.0000 </r>
       <r>  -10.7531    1.0000 </r>
       <r>  -10.6768    1.0000 </r>
       <r>  -10.6184    1.0000 </r>
       <r>  -10.5822    1.0000 </r>
       <r>  -10.5401    1.0000 </r>
       <r>  -10.5134    1.0000 </r>
       <r>   -0.4993    1.0000 </r>
       <r>   -0.3514    1.0000 </r>
       <r>   -0.2107    1.0000 </r>
       <r>   -0.0388    1.0000 </r>
       <r>    0.1842    1.0000 </r>
       <r>    0.3987    1.0000 </r>
       <r>    0.6870    1.0000 </r>
       <r>    0.8385    1.0000 </r>
       <r>    0.9932    1.0000 </r>
       <r>    1.1557    1.0000 </r>
       <r>    1.2468    1.0000 </r>
       <r>    1.2899    1.0000 </r>
       <r>    1.3464    1.0000 </r>
       <r>    1.4370    1.0000 </r>
       <r>    1.8195    1.0000 </r>
       <r>    2.1268    1.0000 </r>
       <r>    2.2960    1.0000 </r>
       <r>    2.3770    1.0000 </r>
       <r>    2.4739    1.0000 </r>
       <r>    2.5696    1.0000 </r>
       <r>    2.7300    1.0000 </r>
       <r>    2.7330    1.0000 </r>
       <r>    2.8034    1.0000 </r>
       <r>    2.9994    1.0000 </r>
       <r>    3.2513    1.0000 </r>
       <r>    3.4804    1.0000 </r>
       <r>    3.7920    1.0000 </r>
       <r>    7.1433   -0.0585 </r>
       <r>    7.4637    0.0000 </r>
       <r>    7.5868    0.0000 </r>
       <r>    7.6819    0.0000 </r>
       <r>    7.9964    0.0000 </r>
       <r>    8.0120    0.0000 </r>
       <r>    8.2469    0.0000 </r>
       <r>    8.3008    0.0000 </r>
       <r>    8.6290    0.0000 </r>
       <r>    9.4267    0.0000 </r>
       <r>    9.8543    0.0000 </r>
       <r>   10.1011    0.0000 </r>
      </set>
      <set comment="kpoint 7">
       <r>  -51.8394    1.0000 </r>
       <r>  -51.8394    1.0000 </r>
       <r>  -50.3279    1.0000 </r>
       <r>  -28.9473    1.0000 </r>
       <r>  -28.9473    1.0000 </r>
       <r>  -28.9023    1.0000 </r>
       <r>  -28.1394    1.0000 </r>
       <r>  -28.1394    1.0000 </r>
       <r>  -28.1378    1.0000 </r>
       <r>  -28.1058    1.0000 </r>
       <r>  -28.1050    1.0000 </r>
       <r>  -28.1050    1.0000 </r>
       <r>  -26.5300    1.0000 </r>
       <r>  -26.5296    1.0000 </r>
       <r>  -26.5296    1.0000 </r>
       <r>  -13.0541    1.0000 </r>
       <r>  -13.0022    1.0000 </r>
       <r>  -13.0022    1.0000 </r>
       <r>  -12.4488    1.0000 </r>
       <r>  -12.4488    1.0000 </r>
       <r>  -12.3461    1.0000 </r>
       <r>  -12.1975    1.0000 </r>
       <r>  -12.1975    1.0000 </r>
       <r>  -12.0612    1.0000 </r>
       <r>  -10.8856    1.0000 </r>
       <r>  -10.8635    1.0000 </r>
       <r>  -10.8635    1.0000 </r>
       <r>  -10.6535    1.0000 </r>
       <r>  -10.6535    1.0000 </r>
       <r>  -10.6226    1.0000 </r>
       <r>  -10.5876    1.0000 </r>
       <r>  -10.5331    1.0000 </r>
       <r>  -10.5331    1.0000 </r>
       <r>   -0.2958    1.0000 </r>
       <r>   -0.2958    1.0000 </r>
       <r>   -0.0729    1.0000 </r>
       <r>    0.0365    1.0000 </r>
       <r>    0.0365    1.0000 </r>
       <r>    0.3482    1.0000 </r>
       <r>    0.5264    1.0000 </r>
       <r>    0.5264    1.0000 </r>
       <r>    0.7056    1.0000 </r>
       <r>    1.2665    1.0000 </r>
       <r>    1.2665    1.0000 </r>
       <r>    1.3914    1.0000 </r>
       <r>    1.4323    1.0000 </r>
       <r>    1.6630    1.0000 </r>
       <r>    1.6630    1.0000 </r>
       <r>    2.2166    1.0000 </r>
       <r>    2.2166    1.0000 </r>
       <r>    2.2966    1.0000 </r>
       <r>    2.4596    1.0000 </r>
       <r>    2.5302    1.0000 </r>
       <r>    2.5302    1.0000 </r>
       <r>    2.7307    1.0000 </r>
       <r>    2.7307    1.0000 </r>
       <r>    2.8196    1.0000 </r>
       <r>    3.5526    1.0000 </r>
       <r>    3.5569    1.0000 </r>
       <r>    3.5569    1.0000 </r>
       <r>    7.6452    0.0000 </r>
       <r>    7.6916    0.0000 </r>
       <r>    7.6916    0.0000 </r>
       <r>    7.8200    0.0000 </r>
       <r>    7.8200    0.0000 </r>
       <r>    7.8843    0.0000 </r>
       <r>    8.2421    0.0000 </r>
       <r>    8.2421    0.0000 </r>
       <r>    8.2633    0.0000 </r>
       <r>    9.3567    0.0000 </r>
       <r>    9.8016    0.0000 </r>
       <r>    9.8016    0.0000 </r>
      </set>
      <set comment="kpoint 8">
       <r>  -51.8405    1.0000 </r>
       <r>  -51.8384    1.0000 </r>
       <r>  -50.3279    1.0000 </r>
       <r>  -28.9595    1.0000 </r>
       <r>  -28.9402    1.0000 </r>
       <r>  -28.8940    1.0000 </r>
       <r>  -28.1404    1.0000 </r>
       <r>  -28.1404    1.0000 </r>
       <r>  -28.1360    1.0000 </r>
       <r>  -28.1074    1.0000 </r>
       <r>  -28.1074    1.0000 </r>
       <r>  -28.1043    1.0000 </r>
       <r>  -26.5308    1.0000 </r>
       <r>  -26.5308    1.0000 </r>
       <r>  -26.5281    1.0000 </r>
       <r>  -13.2127    1.0000 </r>
       <r>  -12.8803    1.0000 </r>
       <r>  -12.5310    1.0000 </r>
       <r>  -12.5310    1.0000 </r>
       <r>  -12.1581    1.0000 </r>
       <r>  -12.1581    1.0000 </r>
       <r>  -12.1429    1.0000 </r>
       <r>  -11.9619    1.0000 </r>
       <r>  -11.9619    1.0000 </r>
       <r>  -11.0775    1.0000 </r>
       <r>  -11.0775    1.0000 </r>
       <r>  -10.9398    1.0000 </r>
       <r>  -10.9025    1.0000 </r>
       <r>  -10.9025    1.0000 </r>
       <r>  -10.8540    1.0000 </r>
       <r>  -10.8540    1.0000 </r>
       <r>  -10.8357    1.0000 </r>
       <r>  -10.5606    1.0000 </r>
       <r>   -0.2486    1.0000 </r>
       <r>   -0.1799    1.0000 </r>
       <r>   -0.1799    1.0000 </r>
       <r>    0.0334    1.0000 </r>
       <r>    0.2952    1.0000 </r>
       <r>    0.2952    1.0000 </r>
       <r>    0.4205    1.0000 </r>
       <r>    0.9030    1.0000 </r>
       <r>    0.9030    1.0000 </r>
       <r>    1.1742    1.0000 </r>
       <r>    1.1742    1.0000 </r>
       <r>    1.2171    1.0000 </r>
       <r>    1.3135    1.0000 </r>
       <r>    1.4150    1.0000 </r>
       <r>    1.4150    1.0000 </r>
       <r>    2.5229    1.0000 </r>
       <r>    2.5229    1.0000 </r>
       <r>    2.9229    1.0000 </r>
       <r>    3.0707    1.0000 </r>
       <r>    3.0707    1.0000 </r>
       <r>    3.1458    1.0000 </r>
       <r>    3.3718    1.0000 </r>
       <r>    3.3718    1.0000 </r>
       <r>    3.4015    1.0000 </r>
       <r>    3.8051    1.0000 </r>
       <r>    3.8051    1.0000 </r>
       <r>    3.9162    1.0000 </r>
       <r>    6.4241    0.9922 </r>
       <r>    6.4838    0.6912 </r>
       <r>    6.4838    0.5748 </r>
       <r>    7.7469    0.0000 </r>
       <r>    7.7869    0.0000 </r>
       <r>    7.7869    0.0000 </r>
       <r>    8.7966    0.0000 </r>
       <r>    8.8291    0.0000 </r>
       <r>    8.8291    0.0000 </r>
       <r>    9.1865    0.0000 </r>
       <r>    9.1865    0.0000 </r>
       <r>    9.6556    0.0000 </r>
      </set>
      <set comment="kpoint 9">
       <r>  -51.8404    1.0000 </r>
       <r>  -51.8385    1.0000 </r>
       <r>  -50.3279    1.0000 </r>
       <r>  -28.9587    1.0000 </r>
       <r>  -28.9406    1.0000 </r>
       <r>  -28.8955    1.0000 </r>
       <r>  -28.1407    1.0000 </r>
       <r>  -28.1399    1.0000 </r>
       <r>  -28.1362    1.0000 </r>
       <r>  -28.1073    1.0000 </r>
       <r>  -28.1063    1.0000 </r>
       <r>  -28.1045    1.0000 </r>
       <r>  -26.5309    1.0000 </r>
       <r>  -26.5302    1.0000 </r>
       <r>  -26.5282    1.0000 </r>
       <r>  -13.2449    1.0000 </r>
       <r>  -12.9536    1.0000 </r>
       <r>  -12.5352    1.0000 </r>
       <r>  -12.4439    1.0000 </r>
       <r>  -12.2803    1.0000 </r>
       <r>  -12.2284    1.0000 </r>
       <r>  -12.0993    1.0000 </r>
       <r>  -12.0703    1.0000 </r>
       <r>  -11.9532    1.0000 </r>
       <r>  -11.0976    1.0000 </r>
       <r>  -10.9341    1.0000 </r>
       <r>  -10.9192    1.0000 </r>
       <r>  -10.9132    1.0000 </r>
       <r>  -10.9002    1.0000 </r>
       <r>  -10.8438    1.0000 </r>
       <r>  -10.7188    1.0000 </r>
       <r>  -10.7186    1.0000 </r>
       <r>  -10.5619    1.0000 </r>
       <r>   -0.3467    1.0000 </r>
       <r>   -0.1119    1.0000 </r>
       <r>   -0.0839    1.0000 </r>
       <r>    0.0732    1.0000 </r>
       <r>    0.2282    1.0000 </r>
       <r>    0.3306    1.0000 </r>
       <r>    0.5032    1.0000 </r>
       <r>    0.7406    1.0000 </r>
       <r>    0.7431    1.0000 </r>
       <r>    0.9661    1.0000 </r>
       <r>    1.1120    1.0000 </r>
       <r>    1.3300    1.0000 </r>
       <r>    1.4034    1.0000 </r>
       <r>    1.4198    1.0000 </r>
       <r>    1.9418    1.0000 </r>
       <r>    2.3771    1.0000 </r>
       <r>    2.4029    1.0000 </r>
       <r>    2.6657    1.0000 </r>
       <r>    2.6920    1.0000 </r>
       <r>    2.8464    1.0000 </r>
       <r>    2.9117    1.0000 </r>
       <r>    3.3823    1.0000 </r>
       <r>    3.3950    1.0000 </r>
       <r>    3.4565    1.0000 </r>
       <r>    3.6457    1.0000 </r>
       <r>    3.6849    1.0000 </r>
       <r>    3.8491    1.0000 </r>
       <r>    6.2519    1.1030 </r>
       <r>    6.9040    0.0223 </r>
       <r>    6.9053    0.0252 </r>
       <r>    7.7000    0.0000 </r>
       <r>    7.7851    0.0000 </r>
       <r>    8.0828    0.0000 </r>
       <r>    8.5895    0.0000 </r>
       <r>    8.7330    0.0000 </r>
       <r>    8.7772    0.0000 </r>
       <r>    8.9170    0.0000 </r>
       <r>    9.6059    0.0000 </r>
       <r>    9.8933    0.0000 </r>
      </set>
      <set comment="kpoint 10">
       <r>  -51.8401    1.0000 </r>
       <r>  -51.8388    1.0000 </r>
       <r>  -50.3279    1.0000 </r>
       <r>  -28.9564    1.0000 </r>
       <r>  -28.9416    1.0000 </r>
       <r>  -28.8993    1.0000 </r>
       <r>  -28.1415    1.0000 </r>
       <r>  -28.1377    1.0000 </r>
       <r>  -28.1366    1.0000 </r>
       <r>  -28.1066    1.0000 </r>
       <r>  -28.1057    1.0000 </r>
       <r>  -28.1041    1.0000 </r>
       <r>  -26.5310    1.0000 </r>
       <r>  -26.5295    1.0000 </r>
       <r>  -26.5281    1.0000 </r>
       <r>  -13.3281    1.0000 </r>
       <r>  -12.9565    1.0000 </r>
       <r>  -12.6084    1.0000 </r>
       <r>  -12.5363    1.0000 </r>
       <r>  -12.3232    1.0000 </r>
       <r>  -12.2945    1.0000 </r>
       <r>  -12.1244    1.0000 </r>
       <r>  -12.0686    1.0000 </r>
       <r>  -12.0550    1.0000 </r>
       <r>  -10.9806    1.0000 </r>
       <r>  -10.9041    1.0000 </r>
       <r>  -10.9012    1.0000 </r>
       <r>  -10.8754    1.0000 </r>
       <r>  -10.8623    1.0000 </r>
       <r>  -10.6492    1.0000 </r>
       <r>  -10.5995    1.0000 </r>
       <r>  -10.5722    1.0000 </r>
       <r>  -10.5227    1.0000 </r>
       <r>   -0.3653    1.0000 </r>
       <r>   -0.1859    1.0000 </r>
       <r>   -0.0946    1.0000 </r>
       <r>    0.0388    1.0000 </r>
       <r>    0.3037    1.0000 </r>
       <r>    0.5043    1.0000 </r>
       <r>    0.5282    1.0000 </r>
       <r>    0.6455    1.0000 </r>
       <r>    0.7670    1.0000 </r>
       <r>    0.8438    1.0000 </r>
       <r>    1.2948    1.0000 </r>
       <r>    1.3893    1.0000 </r>
       <r>    1.3940    1.0000 </r>
       <r>    1.4721    1.0000 </r>
       <r>    1.9107    1.0000 </r>
       <r>    2.0362    1.0000 </r>
       <r>    2.1757    1.0000 </r>
       <r>    2.3208    1.0000 </r>
       <r>    2.4232    1.0000 </r>
       <r>    2.5293    1.0000 </r>
       <r>    2.6568    1.0000 </r>
       <r>    3.2473    1.0000 </r>
       <r>    3.3000    1.0000 </r>
       <r>    3.3603    1.0000 </r>
       <r>    3.3772    1.0000 </r>
       <r>    3.6421    1.0000 </r>
       <r>    3.6748    1.0000 </r>
       <r>    6.3201    1.1085 </r>
       <r>    7.5535   -0.0077 </r>
       <r>    7.5600   -0.0045 </r>
       <r>    7.8743    0.0000 </r>
       <r>    7.9412    0.0000 </r>
       <r>    8.1988    0.0000 </r>
       <r>    8.3713    0.0000 </r>
       <r>    8.3973    0.0000 </r>
       <r>    8.4111    0.0000 </r>
       <r>    8.9195    0.0000 </r>
       <r>    9.6213    0.0000 </r>
       <r>   10.4507    0.0000 </r>
      </set>
      <set comment="kpoint 11">
       <r>  -51.8398    1.0000 </r>
       <r>  -51.8391    1.0000 </r>
       <r>  -50.3279    1.0000 </r>
       <r>  -28.9534    1.0000 </r>
       <r>  -28.9441    1.0000 </r>
       <r>  -28.9010    1.0000 </r>
       <r>  -28.1422    1.0000 </r>
       <r>  -28.1381    1.0000 </r>
       <r>  -28.1355    1.0000 </r>
       <r>  -28.1061    1.0000 </r>
       <r>  -28.1050    1.0000 </r>
       <r>  -28.1040    1.0000 </r>
       <r>  -26.5311    1.0000 </r>
       <r>  -26.5294    1.0000 </r>
       <r>  -26.5278    1.0000 </r>
       <r>  -13.3472    1.0000 </r>
       <r>  -12.9108    1.0000 </r>
       <r>  -12.7795    1.0000 </r>
       <r>  -12.5275    1.0000 </r>
       <r>  -12.3293    1.0000 </r>
       <r>  -12.3183    1.0000 </r>
       <r>  -12.1704    1.0000 </r>
       <r>  -12.1269    1.0000 </r>
       <r>  -12.0241    1.0000 </r>
       <r>  -10.9175    1.0000 </r>
       <r>  -10.8802    1.0000 </r>
       <r>  -10.8663    1.0000 </r>
       <r>  -10.8597    1.0000 </r>
       <r>  -10.8181    1.0000 </r>
       <r>  -10.5774    1.0000 </r>
       <r>  -10.5717    1.0000 </r>
       <r>  -10.5620    1.0000 </r>
       <r>  -10.4429    1.0000 </r>
       <r>   -0.5291    1.0000 </r>
       <r>   -0.3538    1.0000 </r>
       <r>   -0.1943    1.0000 </r>
       <r>    0.0127    1.0000 </r>
       <r>    0.2134    1.0000 </r>
       <r>    0.7817    1.0000 </r>
       <r>    0.8238    1.0000 </r>
       <r>    0.9392    1.0000 </r>
       <r>    0.9761    1.0000 </r>
       <r>    1.1791    1.0000 </r>
       <r>    1.2005    1.0000 </r>
       <r>    1.3153    1.0000 </r>
       <r>    1.3206    1.0000 </r>
       <r>    1.4070    1.0000 </r>
       <r>    1.4170    1.0000 </r>
       <r>    1.5798    1.0000 </r>
       <r>    2.2526    1.0000 </r>
       <r>    2.3375    1.0000 </r>
       <r>    2.5581    1.0000 </r>
       <r>    2.6029    1.0000 </r>
       <r>    2.6434    1.0000 </r>
       <r>    2.9648    1.0000 </r>
       <r>    3.0577    1.0000 </r>
       <r>    3.0962    1.0000 </r>
       <r>    3.1637    1.0000 </r>
       <r>    3.3972    1.0000 </r>
       <r>    3.8141    1.0000 </r>
       <r>    6.6174    0.4332 </r>
       <r>    7.7335    0.0000 </r>
       <r>    7.7728    0.0000 </r>
       <r>    7.7831    0.0000 </r>
       <r>    7.9929    0.0000 </r>
       <r>    8.0127    0.0000 </r>
       <r>    8.2283    0.0000 </r>
       <r>    8.2425    0.0000 </r>
       <r>    8.6456    0.0000 </r>
       <r>    9.1873    0.0000 </r>
       <r>    9.8849    0.0000 </r>
       <r>   10.6684    0.0000 </r>
      </set>
      <set comment="kpoint 12">
       <r>  -51.8401    1.0000 </r>
       <r>  -51.8388    1.0000 </r>
       <r>  -50.3279    1.0000 </r>
       <r>  -28.9547    1.0000 </r>
       <r>  -28.9439    1.0000 </r>
       <r>  -28.8987    1.0000 </r>
       <r>  -28.1419    1.0000 </r>
       <r>  -28.1391    1.0000 </r>
       <r>  -28.1360    1.0000 </r>
       <r>  -28.1062    1.0000 </r>
       <r>  -28.1052    1.0000 </r>
       <r>  -28.1038    1.0000 </r>
       <r>  -26.5310    1.0000 </r>
       <r>  -26.5294    1.0000 </r>
       <r>  -26.5282    1.0000 </r>
       <r>  -13.2470    1.0000 </r>
       <r>  -13.0908    1.0000 </r>
       <r>  -12.5379    1.0000 </r>
       <r>  -12.5288    1.0000 </r>
       <r>  -12.2784    1.0000 </r>
       <r>  -12.2505    1.0000 </r>
       <r>  -12.1976    1.0000 </r>
       <r>  -12.1324    1.0000 </r>
       <r>  -12.0738    1.0000 </r>
       <r>  -10.9535    1.0000 </r>
       <r>  -10.9400    1.0000 </r>
       <r>  -10.8838    1.0000 </r>
       <r>  -10.8363    1.0000 </r>
       <r>  -10.7233    1.0000 </r>
       <r>  -10.6857    1.0000 </r>
       <r>  -10.6786    1.0000 </r>
       <r>  -10.6391    1.0000 </r>
       <r>  -10.4799    1.0000 </r>
       <r>   -0.5790    1.0000 </r>
       <r>   -0.2726    1.0000 </r>
       <r>   -0.2644    1.0000 </r>
       <r>   -0.0944    1.0000 </r>
       <r>    0.4151    1.0000 </r>
       <r>    0.6422    1.0000 </r>
       <r>    0.6583    1.0000 </r>
       <r>    0.9115    1.0000 </r>
       <r>    1.0949    1.0000 </r>
       <r>    1.1361    1.0000 </r>
       <r>    1.1880    1.0000 </r>
       <r>    1.2416    1.0000 </r>
       <r>    1.4445    1.0000 </r>
       <r>    1.5071    1.0000 </r>
       <r>    1.6480    1.0000 </r>
       <r>    1.8009    1.0000 </r>
       <r>    2.1802    1.0000 </r>
       <r>    2.4508    1.0000 </r>
       <r>    2.6533    1.0000 </r>
       <r>    2.8791    1.0000 </r>
       <r>    2.9342    1.0000 </r>
       <r>    3.0210    1.0000 </r>
       <r>    3.0549    1.0000 </r>
       <r>    3.1228    1.0000 </r>
       <r>    3.1269    1.0000 </r>
       <r>    3.1757    1.0000 </r>
       <r>    3.9194    1.0000 </r>
       <r>    7.0097   -0.1491 </r>
       <r>    7.0884   -0.0038 </r>
       <r>    7.1753   -0.0018 </r>
       <r>    7.3028    0.0000 </r>
       <r>    8.1749    0.0000 </r>
       <r>    8.1920    0.0000 </r>
       <r>    8.4507    0.0000 </r>
       <r>    8.4534    0.0000 </r>
       <r>    8.8299    0.0000 </r>
       <r>    9.5799    0.0000 </r>
       <r>    9.8231    0.0000 </r>
       <r>   10.5736    0.0000 </r>
      </set>
      <set comment="kpoint 13">
       <r>  -51.8404    1.0000 </r>
       <r>  -51.8385    1.0000 </r>
       <r>  -50.3279    1.0000 </r>
       <r>  -28.9583    1.0000 </r>
       <r>  -28.9411    1.0000 </r>
       <r>  -28.8954    1.0000 </r>
       <r>  -28.1411    1.0000 </r>
       <r>  -28.1399    1.0000 </r>
       <r>  -28.1362    1.0000 </r>
       <r>  -28.1069    1.0000 </r>
       <r>  -28.1062    1.0000 </r>
       <r>  -28.1045    1.0000 </r>
       <r>  -26.5309    1.0000 </r>
       <r>  -26.5302    1.0000 </r>
       <r>  -26.5282    1.0000 </r>
       <r>  -13.2114    1.0000 </r>
       <r>  -13.0048    1.0000 </r>
       <r>  -12.5319    1.0000 </r>
       <r>  -12.4655    1.0000 </r>
       <r>  -12.1787    1.0000 </r>
       <r>  -12.1671    1.0000 </r>
       <r>  -12.1244    1.0000 </r>
       <r>  -12.1034    1.0000 </r>
       <r>  -12.0484    1.0000 </r>
       <r>  -11.0570    1.0000 </r>
       <r>  -10.9422    1.0000 </r>
       <r>  -10.9168    1.0000 </r>
       <r>  -10.9137    1.0000 </r>
       <r>  -10.8727    1.0000 </r>
       <r>  -10.8301    1.0000 </r>
       <r>  -10.7682    1.0000 </r>
       <r>  -10.7242    1.0000 </r>
       <r>  -10.5545    1.0000 </r>
       <r>   -0.4168    1.0000 </r>
       <r>   -0.2587    1.0000 </r>
       <r>   -0.0888    1.0000 </r>
       <r>    0.0020    1.0000 </r>
       <r>    0.3063    1.0000 </r>
       <r>    0.4053    1.0000 </r>
       <r>    0.6026    1.0000 </r>
       <r>    0.7694    1.0000 </r>
       <r>    1.0013    1.0000 </r>
       <r>    1.0235    1.0000 </r>
       <r>    1.1018    1.0000 </r>
       <r>    1.1812    1.0000 </r>
       <r>    1.4028    1.0000 </r>
       <r>    1.4147    1.0000 </r>
       <r>    1.8588    1.0000 </r>
       <r>    2.1589    1.0000 </r>
       <r>    2.4318    1.0000 </r>
       <r>    2.8642    1.0000 </r>
       <r>    2.8805    1.0000 </r>
       <r>    2.9575    1.0000 </r>
       <r>    2.9610    1.0000 </r>
       <r>    3.1873    1.0000 </r>
       <r>    3.2565    1.0000 </r>
       <r>    3.3614    1.0000 </r>
       <r>    3.5797    1.0000 </r>
       <r>    3.5958    1.0000 </r>
       <r>    3.9485    1.0000 </r>
       <r>    6.5606    0.8466 </r>
       <r>    6.6634    0.2089 </r>
       <r>    6.8413    0.0489 </r>
       <r>    7.4175    0.0000 </r>
       <r>    8.0227    0.0000 </r>
       <r>    8.0270    0.0000 </r>
       <r>    8.6582    0.0000 </r>
       <r>    8.6597    0.0000 </r>
       <r>    8.9027    0.0000 </r>
       <r>    9.1494    0.0000 </r>
       <r>    9.5883    0.0000 </r>
       <r>    9.9199    0.0000 </r>
      </set>
      <set comment="kpoint 14">
       <r>  -51.8401    1.0000 </r>
       <r>  -51.8387    1.0000 </r>
       <r>  -50.3279    1.0000 </r>
       <r>  -28.9564    1.0000 </r>
       <r>  -28.9422    1.0000 </r>
       <r>  -28.8981    1.0000 </r>
       <r>  -28.1408    1.0000 </r>
       <r>  -28.1393    1.0000 </r>
       <r>  -28.1365    1.0000 </r>
       <r>  -28.1066    1.0000 </r>
       <r>  -28.1054    1.0000 </r>
       <r>  -28.1043    1.0000 </r>
       <r>  -26.5309    1.0000 </r>
       <r>  -26.5295    1.0000 </r>
       <r>  -26.5284    1.0000 </r>
       <r>  -13.2394    1.0000 </r>
       <r>  -13.0802    1.0000 </r>
       <r>  -12.5521    1.0000 </r>
       <r>  -12.4522    1.0000 </r>
       <r>  -12.3500    1.0000 </r>
       <r>  -12.1958    1.0000 </r>
       <r>  -12.1798    1.0000 </r>
       <r>  -12.1000    1.0000 </r>
       <r>  -12.0499    1.0000 </r>
       <r>  -11.0169    1.0000 </r>
       <r>  -10.9193    1.0000 </r>
       <r>  -10.8932    1.0000 </r>
       <r>  -10.8573    1.0000 </r>
       <r>  -10.7987    1.0000 </r>
       <r>  -10.7133    1.0000 </r>
       <r>  -10.6741    1.0000 </r>
       <r>  -10.6280    1.0000 </r>
       <r>  -10.5243    1.0000 </r>
       <r>   -0.4367    1.0000 </r>
       <r>   -0.2223    1.0000 </r>
       <r>   -0.1006    1.0000 </r>
       <r>   -0.0201    1.0000 </r>
       <r>    0.1672    1.0000 </r>
       <r>    0.5451    1.0000 </r>
       <r>    0.6922    1.0000 </r>
       <r>    0.7519    1.0000 </r>
       <r>    0.8170    1.0000 </r>
       <r>    1.0545    1.0000 </r>
       <r>    1.2406    1.0000 </r>
       <r>    1.3005    1.0000 </r>
       <r>    1.3725    1.0000 </r>
       <r>    1.4190    1.0000 </r>
       <r>    1.9183    1.0000 </r>
       <r>    1.9223    1.0000 </r>
       <r>    2.2835    1.0000 </r>
       <r>    2.5371    1.0000 </r>
       <r>    2.5730    1.0000 </r>
       <r>    2.7817    1.0000 </r>
       <r>    2.8438    1.0000 </r>
       <r>    3.0930    1.0000 </r>
       <r>    3.2013    1.0000 </r>
       <r>    3.3030    1.0000 </r>
       <r>    3.3435    1.0000 </r>
       <r>    3.4268    1.0000 </r>
       <r>    3.8387    1.0000 </r>
       <r>    6.5351    0.7832 </r>
       <r>    7.2689   -0.0284 </r>
       <r>    7.2841   -0.0157 </r>
       <r>    7.4172    0.0000 </r>
       <r>    8.0893    0.0000 </r>
       <r>    8.2322    0.0000 </r>
       <r>    8.4433    0.0000 </r>
       <r>    8.4634    0.0000 </r>
       <r>    8.7356    0.0000 </r>
       <r>    9.1918    0.0000 </r>
       <r>    9.6681    0.0000 </r>
       <r>   10.3616    0.0000 </r>
      </set>
      <set comment="kpoint 15">
       <r>  -51.8398    1.0000 </r>
       <r>  -51.8391    1.0000 </r>
       <r>  -50.3279    1.0000 </r>
       <r>  -28.9532    1.0000 </r>
       <r>  -28.9439    1.0000 </r>
       <r>  -28.9015    1.0000 </r>
       <r>  -28.1407    1.0000 </r>
       <r>  -28.1379    1.0000 </r>
       <r>  -28.1366    1.0000 </r>
       <r>  -28.1062    1.0000 </r>
       <r>  -28.1052    1.0000 </r>
       <r>  -28.1043    1.0000 </r>
       <r>  -26.5307    1.0000 </r>
       <r>  -26.5293    1.0000 </r>
       <r>  -26.5283    1.0000 </r>
       <r>  -13.2869    1.0000 </r>
       <r>  -13.0114    1.0000 </r>
       <r>  -12.8329    1.0000 </r>
       <r>  -12.4524    1.0000 </r>
       <r>  -12.3427    1.0000 </r>
       <r>  -12.2423    1.0000 </r>
       <r>  -12.2017    1.0000 </r>
       <r>  -12.0897    1.0000 </r>
       <r>  -12.0663    1.0000 </r>
       <r>  -10.9561    1.0000 </r>
       <r>  -10.8973    1.0000 </r>
       <r>  -10.8661    1.0000 </r>
       <r>  -10.8130    1.0000 </r>
       <r>  -10.7509    1.0000 </r>
       <r>  -10.6235    1.0000 </r>
       <r>  -10.5875    1.0000 </r>
       <r>  -10.5279    1.0000 </r>
       <r>  -10.4836    1.0000 </r>
       <r>   -0.4592    1.0000 </r>
       <r>   -0.2450    1.0000 </r>
       <r>   -0.1597    1.0000 </r>
       <r>    0.0138    1.0000 </r>
       <r>    0.2593    1.0000 </r>
       <r>    0.5371    1.0000 </r>
       <r>    0.6737    1.0000 </r>
       <r>    0.7123    1.0000 </r>
       <r>    0.8964    1.0000 </r>
       <r>    1.1181    1.0000 </r>
       <r>    1.2539    1.0000 </r>
       <r>    1.3180    1.0000 </r>
       <r>    1.3961    1.0000 </r>
       <r>    1.5116    1.0000 </r>
       <r>    1.5842    1.0000 </r>
       <r>    1.7885    1.0000 </r>
       <r>    2.1598    1.0000 </r>
       <r>    2.3075    1.0000 </r>
       <r>    2.4749    1.0000 </r>
       <r>    2.6787    1.0000 </r>
       <r>    2.8131    1.0000 </r>
       <r>    2.9371    1.0000 </r>
       <r>    2.9863    1.0000 </r>
       <r>    3.0513    1.0000 </r>
       <r>    3.1715    1.0000 </r>
       <r>    3.5562    1.0000 </r>
       <r>    3.6039    1.0000 </r>
       <r>    6.7117    0.1814 </r>
       <r>    7.6212    0.0000 </r>
       <r>    7.8448    0.0000 </r>
       <r>    7.8827    0.0000 </r>
       <r>    7.8965    0.0000 </r>
       <r>    8.0772    0.0000 </r>
       <r>    8.2541    0.0000 </r>
       <r>    8.3190    0.0000 </r>
       <r>    8.4823    0.0000 </r>
       <r>    9.2281    0.0000 </r>
       <r>    9.6721    0.0000 </r>
       <r>   10.5784    0.0000 </r>
      </set>
      <set comment="kpoint 16">
       <r>  -51.8398    1.0000 </r>
       <r>  -51.8391    1.0000 </r>
       <r>  -50.3279    1.0000 </r>
       <r>  -28.9522    1.0000 </r>
       <r>  -28.9452    1.0000 </r>
       <r>  -28.9013    1.0000 </r>
       <r>  -28.1407    1.0000 </r>
       <r>  -28.1386    1.0000 </r>
       <r>  -28.1363    1.0000 </r>
       <r>  -28.1059    1.0000 </r>
       <r>  -28.1052    1.0000 </r>
       <r>  -28.1040    1.0000 </r>
       <r>  -26.5307    1.0000 </r>
       <r>  -26.5293    1.0000 </r>
       <r>  -26.5283    1.0000 </r>
       <r>  -13.2472    1.0000 </r>
       <r>  -13.0891    1.0000 </r>
       <r>  -12.7875    1.0000 </r>
       <r>  -12.4454    1.0000 </r>
       <r>  -12.3488    1.0000 </r>
       <r>  -12.2643    1.0000 </r>
       <r>  -12.1625    1.0000 </r>
       <r>  -12.1067    1.0000 </r>
       <r>  -12.0875    1.0000 </r>
       <r>  -10.9274    1.0000 </r>
       <r>  -10.9169    1.0000 </r>
       <r>  -10.8803    1.0000 </r>
       <r>  -10.7714    1.0000 </r>
       <r>  -10.7387    1.0000 </r>
       <r>  -10.6306    1.0000 </r>
[...]
       <r>    3.5433    1.0000 </r>
       <r>    6.6535    0.3495 </r>
       <r>    7.2870    0.0000 </r>
       <r>    7.8522    0.0000 </r>
       <r>    7.9775    0.0000 </r>
       <r>    8.1238    0.0000 </r>
       <r>    8.1292    0.0000 </r>
       <r>    8.2365    0.0000 </r>
       <r>    8.4018    0.0000 </r>
       <r>    8.4699    0.0000 </r>
       <r>    9.2023    0.0000 </r>
       <r>    9.8244    0.0000 </r>
       <r>   10.6579    0.0000 </r>
      </set>
      <set comment="kpoint 24">
       <r>  -51.8394    1.0000 </r>
       <r>  -51.8394    1.0000 </r>
       <r>  -50.3279    1.0000 </r>
       <r>  -28.9491    1.0000 </r>
       <r>  -28.9491    1.0000 </r>
       <r>  -28.9036    1.0000 </r>
       <r>  -28.1381    1.0000 </r>
       <r>  -28.1371    1.0000 </r>
       <r>  -28.1371    1.0000 </r>
       <r>  -28.1054    1.0000 </r>
       <r>  -28.1050    1.0000 </r>
       <r>  -28.1050    1.0000 </r>
       <r>  -26.5297    1.0000 </r>
       <r>  -26.5297    1.0000 </r>
       <r>  -26.5276    1.0000 </r>
       <r>  -13.1829    1.0000 </r>
       <r>  -13.1268    1.0000 </r>
       <r>  -13.1268    1.0000 </r>
       <r>  -12.3346    1.0000 </r>
       <r>  -12.3346    1.0000 </r>
       <r>  -12.1380    1.0000 </r>
       <r>  -12.0959    1.0000 </r>
       <r>  -12.0959    1.0000 </r>
       <r>  -12.0562    1.0000 </r>
       <r>  -10.9584    1.0000 </r>
       <r>  -10.9574    1.0000 </r>
       <r>  -10.9574    1.0000 </r>
       <r>  -10.6902    1.0000 </r>
       <r>  -10.6902    1.0000 </r>
       <r>  -10.6816    1.0000 </r>
       <r>  -10.5517    1.0000 </r>
       <r>  -10.5020    1.0000 </r>
       <r>  -10.5020    1.0000 </r>
       <r>   -0.4894    1.0000 </r>
       <r>   -0.4894    1.0000 </r>
       <r>    0.0033    1.0000 </r>
       <r>    0.2831    1.0000 </r>
       <r>    0.2831    1.0000 </r>
       <r>    0.6607    1.0000 </r>
       <r>    0.6941    1.0000 </r>
       <r>    1.0139    1.0000 </r>
       <r>    1.0139    1.0000 </r>
       <r>    1.0344    1.0000 </r>
       <r>    1.0682    1.0000 </r>
       <r>    1.0682    1.0000 </r>
       <r>    1.3218    1.0000 </r>
       <r>    1.3218    1.0000 </r>
       <r>    1.4808    1.0000 </r>
       <r>    2.1434    1.0000 </r>
       <r>    2.1434    1.0000 </r>
       <r>    2.2332    1.0000 </r>
       <r>    2.7186    1.0000 </r>
       <r>    2.8132    1.0000 </r>
       <r>    2.8132    1.0000 </r>
       <r>    2.9423    1.0000 </r>
       <r>    2.9423    1.0000 </r>
       <r>    2.9667    1.0000 </r>
       <r>    3.0718    1.0000 </r>
       <r>    3.0718    1.0000 </r>
       <r>    3.0828    1.0000 </r>
       <r>    7.2219   -0.0162 </r>
       <r>    7.2219    0.0000 </r>
       <r>    7.2335    0.0000 </r>
       <r>    8.1677    0.0000 </r>
       <r>    8.1847    0.0000 </r>
       <r>    8.1847    0.0000 </r>
       <r>    8.3773    0.0000 </r>
       <r>    8.3774    0.0000 </r>
       <r>    8.4091    0.0000 </r>
       <r>    9.6874    0.0000 </r>
       <r>   10.0937    0.0000 </r>
       <r>   10.0937    0.0000 </r>
      </set>
     </set>
    </set>
   </array>
  </eigenvalues>
  <separator name="orbital magnetization" >
   <v name="MAGDIPOLOUT">      0.00000000      0.00000000      0.00000000</v>
  </separator>
  <dos>
   <i name="efermi">      6.65629623 </i>
   <total>
    <array>
     <dimension dim="1">gridpoints</dimension>
     <dimension dim="2">spin</dimension>
     <field>energy</field>
     <field>total</field>
     <field>integrated</field>
     <set>
      <set comment="spin 1">
       <r>   -54.9765     0.0000     0.0000 </r>
       <r>   -54.7465     0.0000     0.0000 </r>
       <r>   -54.5166     0.0000     0.0000 </r>
       <r>   -54.2866     0.0000     0.0000 </r>
       <r>   -54.0566     0.0000     0.0000 </r>
       <r>   -53.8267     0.0000     0.0000 </r>
       <r>   -53.5967     0.0000     0.0000 </r>
       <r>   -53.3667     0.0000     0.0000 </r>
       <r>   -53.1367     0.0000     0.0000 </r>
       <r>   -52.9068     0.0000     0.0000 </r>
       <r>   -52.6768     0.0000     0.0000 </r>
       <r>   -52.4468     0.0000     0.0000 </r>
       <r>   -52.2168     0.0000     0.0000 </r>
       <r>   -51.9869     0.0000     0.0000 </r>
       <r>   -51.7569     0.0000     4.0000 </r>
       <r>   -51.5269     0.0000     4.0000 </r>
       <r>   -51.2969     0.0000     4.0000 </r>
       <r>   -51.0670     0.0000     4.0000 </r>
       <r>   -50.8370     0.0000     4.0000 </r>
       <r>   -50.6070     0.0000     4.0000 </r>
       <r>   -50.3770     0.0000     4.0000 </r>
       <r>   -50.1471     0.0000     6.0000 </r>
       <r>   -49.9171     0.0000     6.0000 </r>
       <r>   -49.6871     0.0000     6.0000 </r>
       <r>   -49.4571     0.0000     6.0000 </r>
       <r>   -49.2272     0.0000     6.0000 </r>
       <r>   -48.9972     0.0000     6.0000 </r>
       <r>   -48.7672     0.0000     6.0000 </r>
       <r>   -48.5372     0.0000     6.0000 </r>
       <r>   -48.3073     0.0000     6.0000 </r>
       <r>   -48.0773     0.0000     6.0000 </r>
       <r>   -47.8473     0.0000     6.0000 </r>
       <r>   -47.6174     0.0000     6.0000 </r>
       <r>   -47.3874     0.0000     6.0000 </r>
       <r>   -47.1574     0.0000     6.0000 </r>
       <r>   -46.9274     0.0000     6.0000 </r>
       <r>   -46.6975     0.0000     6.0000 </r>
       <r>   -46.4675     0.0000     6.0000 </r>
       <r>   -46.2375     0.0000     6.0000 </r>
       <r>   -46.0075     0.0000     6.0000 </r>
       <r>   -45.7776     0.0000     6.0000 </r>
       <r>   -45.5476     0.0000     6.0000 </r>
       <r>   -45.3176     0.0000     6.0000 </r>
       <r>   -45.0876     0.0000     6.0000 </r>
       <r>   -44.8577     0.0000     6.0000 </r>
       <r>   -44.6277     0.0000     6.0000 </r>
       <r>   -44.3977     0.0000     6.0000 </r>
       <r>   -44.1677     0.0000     6.0000 </r>
       <r>   -43.9378     0.0000     6.0000 </r>
       <r>   -43.7078     0.0000     6.0000 </r>
       <r>   -43.4778     0.0000     6.0000 </r>
       <r>   -43.2478     0.0000     6.0000 </r>
       <r>   -43.0179     0.0000     6.0000 </r>
       <r>   -42.7879     0.0000     6.0000 </r>
       <r>   -42.5579     0.0000     6.0000 </r>
       <r>   -42.3279     0.0000     6.0000 </r>
       <r>   -42.0980     0.0000     6.0000 </r>
       <r>   -41.8680     0.0000     6.0000 </r>
       <r>   -41.6380     0.0000     6.0000 </r>
       <r>   -41.4080     0.0000     6.0000 </r>
       <r>   -41.1781     0.0000     6.0000 </r>
       <r>   -40.9481     0.0000     6.0000 </r>
       <r>   -40.7181     0.0000     6.0000 </r>
       <r>   -40.4882     0.0000     6.0000 </r>
       <r>   -40.2582     0.0000     6.0000 </r>
       <r>   -40.0282     0.0000     6.0000 </r>
       <r>   -39.7982     0.0000     6.0000 </r>
       <r>   -39.5683     0.0000     6.0000 </r>
       <r>   -39.3383     0.0000     6.0000 </r>
       <r>   -39.1083     0.0000     6.0000 </r>
       <r>   -38.8783     0.0000     6.0000 </r>
       <r>   -38.6484     0.0000     6.0000 </r>
       <r>   -38.4184     0.0000     6.0000 </r>
       <r>   -38.1884     0.0000     6.0000 </r>
       <r>   -37.9584     0.0000     6.0000 </r>
       <r>   -37.7285     0.0000     6.0000 </r>
       <r>   -37.4985     0.0000     6.0000 </r>
       <r>   -37.2685     0.0000     6.0000 </r>
       <r>   -37.0385     0.0000     6.0000 </r>
       <r>   -36.8086     0.0000     6.0000 </r>
       <r>   -36.5786     0.0000     6.0000 </r>
       <r>   -36.3486     0.0000     6.0000 </r>
       <r>   -36.1186     0.0000     6.0000 </r>
       <r>   -35.8887     0.0000     6.0000 </r>
       <r>   -35.6587     0.0000     6.0000 </r>
       <r>   -35.4287     0.0000     6.0000 </r>
       <r>   -35.1987     0.0000     6.0000 </r>
       <r>   -34.9688     0.0000     6.0000 </r>
       <r>   -34.7388     0.0000     6.0000 </r>
       <r>   -34.5088     0.0000     6.0000 </r>
       <r>   -34.2788     0.0000     6.0000 </r>
       <r>   -34.0489     0.0000     6.0000 </r>
       <r>   -33.8189     0.0000     6.0000 </r>
       <r>   -33.5889     0.0000     6.0000 </r>
       <r>   -33.3590     0.0000     6.0000 </r>
       <r>   -33.1290     0.0000     6.0000 </r>
       <r>   -32.8990     0.0000     6.0000 </r>
       <r>   -32.6690     0.0000     6.0000 </r>
       <r>   -32.4391     0.0000     6.0000 </r>
       <r>   -32.2091     0.0000     6.0000 </r>
       <r>   -31.9791     0.0000     6.0000 </r>
       <r>   -31.7491     0.0000     6.0000 </r>
       <r>   -31.5192     0.0000     6.0000 </r>
       <r>   -31.2892     0.0000     6.0000 </r>
       <r>   -31.0592     0.0000     6.0000 </r>
       <r>   -30.8292     0.0000     6.0000 </r>
       <r>   -30.5993     0.0000     6.0000 </r>
       <r>   -30.3693     0.0000     6.0000 </r>
       <r>   -30.1393     0.0000     6.0000 </r>
       <r>   -29.9093     0.0000     6.0000 </r>
       <r>   -29.6794     0.0000     6.0000 </r>
       <r>   -29.4494     0.0000     6.0000 </r>
       <r>   -29.2194     0.0000     6.0000 </r>
       <r>   -28.9894     0.0000     6.0000 </r>
       <r>   -28.7595     0.0000    12.0000 </r>
       <r>   -28.5295     0.0000    12.0000 </r>
       <r>   -28.2995     0.0000    12.0000 </r>
       <r>   -28.0695     0.0000    24.0000 </r>
       <r>   -27.8396     0.0000    24.0000 </r>
       <r>   -27.6096     0.0000    24.0000 </r>
       <r>   -27.3796     0.0000    24.0000 </r>
       <r>   -27.1496     0.0000    24.0000 </r>
       <r>   -26.9197     0.0000    24.0000 </r>
       <r>   -26.6897     0.0000    24.0000 </r>
       <r>   -26.4597     0.0000    30.0000 </r>
       <r>   -26.2298     0.0000    30.0000 </r>
       <r>   -25.9998     0.0000    30.0000 </r>
       <r>   -25.7698     0.0000    30.0000 </r>
       <r>   -25.5398     0.0000    30.0000 </r>
       <r>   -25.3099     0.0000    30.0000 </r>
       <r>   -25.0799     0.0000    30.0000 </r>
       <r>   -24.8499     0.0000    30.0000 </r>
       <r>   -24.6199     0.0000    30.0000 </r>
       <r>   -24.3900     0.0000    30.0000 </r>
       <r>   -24.1600     0.0000    30.0000 </r>
       <r>   -23.9300     0.0000    30.0000 </r>
       <r>   -23.7000     0.0000    30.0000 </r>
       <r>   -23.4701     0.0000    30.0000 </r>
       <r>   -23.2401     0.0000    30.0000 </r>
       <r>   -23.0101     0.0000    30.0000 </r>
       <r>   -22.7801     0.0000    30.0000 </r>
       <r>   -22.5502     0.0000    30.0000 </r>
       <r>   -22.3202     0.0000    30.0000 </r>
       <r>   -22.0902     0.0000    30.0000 </r>
       <r>   -21.8602     0.0000    30.0000 </r>
       <r>   -21.6303     0.0000    30.0000 </r>
       <r>   -21.4003     0.0000    30.0000 </r>
       <r>   -21.1703     0.0000    30.0000 </r>
       <r>   -20.9403     0.0000    30.0000 </r>
       <r>   -20.7104     0.0000    30.0000 </r>
       <r>   -20.4804     0.0000    30.0000 </r>
       <r>   -20.2504     0.0000    30.0000 </r>
       <r>   -20.0205     0.0000    30.0000 </r>
       <r>   -19.7905     0.0000    30.0000 </r>
       <r>   -19.5605     0.0000    30.0000 </r>
       <r>   -19.3305     0.0000    30.0000 </r>
       <r>   -19.1006     0.0000    30.0000 </r>
       <r>   -18.8706     0.0000    30.0000 </r>
       <r>   -18.6406     0.0000    30.0000 </r>
       <r>   -18.4106     0.0000    30.0000 </r>
       <r>   -18.1807     0.0000    30.0000 </r>
       <r>   -17.9507     0.0000    30.0000 </r>
       <r>   -17.7207     0.0000    30.0000 </r>
       <r>   -17.4907     0.0000    30.0000 </r>
       <r>   -17.2608     0.0000    30.0000 </r>
       <r>   -17.0308     0.0000    30.0000 </r>
       <r>   -16.8008     0.0000    30.0000 </r>
       <r>   -16.5708     0.0000    30.0000 </r>
       <r>   -16.3409     0.0000    30.0000 </r>
       <r>   -16.1109     0.0000    30.0000 </r>
       <r>   -15.8809     0.0000    30.0000 </r>
       <r>   -15.6509     0.0000    30.0000 </r>
       <r>   -15.4210     0.0000    30.0000 </r>
       <r>   -15.1910     0.0000    30.0000 </r>
       <r>   -14.9610     0.0000    30.0000 </r>
       <r>   -14.7310     0.0000    30.0000 </r>
       <r>   -14.5011     0.0000    30.0000 </r>
       <r>   -14.2711     0.0000    30.0000 </r>
       <r>   -14.0411     0.0000    30.0000 </r>
       <r>   -13.8111     0.0000    30.0000 </r>
       <r>   -13.5812     0.0000    30.0000 </r>
       <r>   -13.3512     3.3912    30.0972 </r>
       <r>   -13.1212     4.7188    32.0790 </r>
       <r>   -12.8913     3.7262    33.9903 </r>
       <r>   -12.6613     4.3130    35.1680 </r>
       <r>   -12.4313    11.7780    37.7047 </r>
       <r>   -12.2013    34.9976    41.6467 </r>
       <r>   -11.9714     5.5713    47.8478 </r>
       <r>   -11.7414     0.0000    48.0000 </r>
       <r>   -11.5114     0.0000    48.0000 </r>
       <r>   -11.2814     0.0000    48.0000 </r>
       <r>   -11.0515     7.5542    48.3284 </r>
       <r>   -10.8215    26.2440    55.8986 </r>
       <r>   -10.5915    38.7384    62.3789 </r>
       <r>   -10.3615     0.0000    66.0000 </r>
       <r>   -10.1316     0.0000    66.0000 </r>
       <r>    -9.9016     0.0000    66.0000 </r>
       <r>    -9.6716     0.0000    66.0000 </r>
       <r>    -9.4416     0.0000    66.0000 </r>
       <r>    -9.2117     0.0000    66.0000 </r>
       <r>    -8.9817     0.0000    66.0000 </r>
       <r>    -8.7517     0.0000    66.0000 </r>
       <r>    -8.5217     0.0000    66.0000 </r>
       <r>    -8.2918     0.0000    66.0000 </r>
       <r>    -8.0618     0.0000    66.0000 </r>
       <r>    -7.8318     0.0000    66.0000 </r>
       <r>    -7.6018     0.0000    66.0000 </r>
       <r>    -7.3719     0.0000    66.0000 </r>
       <r>    -7.1419     0.0000    66.0000 </r>
       <r>    -6.9119     0.0000    66.0000 </r>
       <r>    -6.6819     0.0000    66.0000 </r>
       <r>    -6.4520     0.0000    66.0000 </r>
       <r>    -6.2220     0.0000    66.0000 </r>
       <r>    -5.9920     0.0000    66.0000 </r>
       <r>    -5.7621     0.0000    66.0000 </r>
       <r>    -5.5321     0.0000    66.0000 </r>
       <r>    -5.3021     0.0000    66.0000 </r>
       <r>    -5.0721     0.0000    66.0000 </r>
       <r>    -4.8422     0.0000    66.0000 </r>
       <r>    -4.6122     0.0000    66.0000 </r>
       <r>    -4.3822     0.0000    66.0000 </r>
       <r>    -4.1522     0.0000    66.0000 </r>
       <r>    -3.9223     0.0000    66.0000 </r>
       <r>    -3.6923     0.0000    66.0000 </r>
       <r>    -3.4623     0.0000    66.0000 </r>
       <r>    -3.2323     0.0000    66.0000 </r>
       <r>    -3.0024     0.0000    66.0000 </r>
       <r>    -2.7724     0.0000    66.0000 </r>
       <r>    -2.5424     0.0000    66.0000 </r>
       <r>    -2.3124     0.0000    66.0000 </r>
       <r>    -2.0825     0.0000    66.0000 </r>
       <r>    -1.8525     0.0000    66.0000 </r>
       <r>    -1.6225     0.0000    66.0000 </r>
       <r>    -1.3925     0.0000    66.0000 </r>
       <r>    -1.1626     0.0000    66.0000 </r>
       <r>    -0.9326     0.0000    66.0000 </r>
       <r>    -0.7026     0.0000    66.0000 </r>
       <r>    -0.4726    15.1083    66.8721 </r>
       <r>    -0.2427    15.0443    69.2362 </r>
       <r>    -0.0127    13.4830    72.4191 </r>
       <r>     0.2173     8.4529    74.5492 </r>
       <r>     0.4473     6.3803    76.5912 </r>
       <r>     0.6772    16.4457    79.3676 </r>
       <r>     0.9072    14.9111    82.5804 </r>
       <r>     1.1372    13.2759    85.9431 </r>
       <r>     1.3671    29.8155    90.3828 </r>
       <r>     1.5971     7.1079    94.5156 </r>
       <r>     1.8271     7.2413    96.1649 </r>
       <r>     2.0571     4.4083    97.5325 </r>
       <r>     2.2870    12.3773    99.8875 </r>
       <r>     2.5170     9.3738   101.7848 </r>
       <r>     2.7470    16.0619   104.8474 </r>
       <r>     2.9770    15.7113   109.1005 </r>
       <r>     3.2069    18.9747   113.2146 </r>
       <r>     3.4369     8.9363   116.4111 </r>
       <r>     3.6669     7.1643   118.1376 </r>
       <r>     3.8969     4.0982   119.8451 </r>
       <r>     4.1268     0.0000   120.0000 </r>
       <r>     4.3568     0.0000   120.0000 </r>
       <r>     4.5868     0.0000   120.0000 </r>
       <r>     4.8168     0.0000   120.0000 </r>
       <r>     5.0467     0.0000   120.0000 </r>
       <r>     5.2767     0.0000   120.0000 </r>
       <r>     5.5067     0.0000   120.0000 </r>
       <r>     5.7367     0.0000   120.0000 </r>
       <r>     5.9666     0.0000   120.0000 </r>
       <r>     6.1966     0.0720   120.0011 </r>
       <r>     6.4266     2.1236   120.2218 </r>
       <r>     6.6566     4.5679   121.0012 </r>
       <r>     6.8865     3.8729   121.9396 </r>
       <r>     7.1165     4.1074   122.8670 </r>
       <r>     7.3465     5.2227   123.9463 </r>
       <r>     7.5764     7.2547   125.3935 </r>
       <r>     7.8064     9.0108   127.3503 </r>
       <r>     8.0364    13.7161   129.8597 </r>
       <r>     8.2664    13.3402   132.4839 </r>
       <r>     8.4963    10.5835   135.2585 </r>
       <r>     8.7263     6.3048   137.3482 </r>
       <r>     8.9563     1.1329   138.0239 </r>
       <r>     9.1863     4.0837   138.6654 </r>
       <r>     9.4162     5.2636   139.8555 </r>
       <r>     9.6462     2.9422   140.6641 </r>
       <r>     9.8762     6.6416   141.8675 </r>
       <r>    10.1062     1.5227   142.3418 </r>
       <r>    10.3361     2.8539   142.8813 </r>
       <r>    10.5661     3.1898   143.5988 </r>
       <r>    10.7961     0.2557   143.9929 </r>
       <r>    11.0261     0.0000   144.0000 </r>
       <r>    11.2560     0.0000   144.0000 </r>
       <r>    11.4860     0.0000   144.0000 </r>
       <r>    11.7160     0.0000   144.0000 </r>
       <r>    11.9460     0.0000   144.0000 </r>
       <r>    12.1759     0.0000   144.0000 </r>
       <r>    12.4059     0.0000   144.0000 </r>
       <r>    12.6359     0.0000   144.0000 </r>
       <r>    12.8659     0.0000   144.0000 </r>
       <r>    13.0958     0.0000   144.0000 </r>
       <r>    13.3258     0.0000   144.0000 </r>
       <r>    13.5558     0.0000   144.0000 </r>
       <r>    13.7858     0.0000   144.0000 </r>
       <r>    14.0157     0.0000   144.0000 </r>
      </set>
     </set>
    </array>
   </total>
  </dos>
 </calculation>
 <structure name="finalpos" >
  <crystal>
   <varray name="basis" >
    <v>      -3.98093957      -3.98093957       0.00000000 </v>
    <v>       3.98093957       0.00000000      -3.98093957 </v>
    <v>       3.98295983      -3.98295983       3.98295983 </v>
   </varray>
   <i name="volume">    189.36440701 </i>
   <varray name="rec_basis" >
    <v>      -0.08373233      -0.16746465      -0.08373233 </v>
    <v>       0.08373233      -0.08373233      -0.16746465 </v>
    <v>       0.08368986      -0.08368986       0.08368986 </v>
   </varray>
  </crystal>
  <varray name="positions" >
   <v>       0.00000000       0.00000000       0.50000000 </v>
   <v>       0.83259046       0.16740954       0.66787556 </v>
   <v>       0.66518092       0.83259046       0.33212444 </v>
   <v>       0.83259046       0.66518092       0.66787556 </v>
   <v>       0.50000000       0.50000000       0.00000000 </v>
   <v>       0.33481908       0.16740954       0.66787556 </v>
   <v>       0.50000000       0.00000000       0.00000000 </v>
   <v>       0.16740954       0.83259046       0.33212444 </v>
   <v>       0.00000000       0.50000000       0.00000000 </v>
   <v>       0.16740954       0.33481908       0.33212444 </v>
   <v>       0.33333333       0.66666667       0.67238377 </v>
   <v>       0.00000000       0.00000000       0.00000000 </v>
   <v>       0.66666667       0.33333333       0.32761623 </v>
   <v>       0.66666667       0.33333333       0.83985527 </v>
   <v>       0.33333333       0.66666667       0.16014473 </v>
  </varray>
 </structure>
</modeling>
