 running on  100 total cores
 distrk:  each k-point on  100 cores,    1 groups
 distr:  one band on   25 cores,    4 groups
 using from now: INCAR     
 vasp.5.4.4.18Apr17-6-g9f103f2a35 (build May 23 2017 16:08:52) complex          
  
 POSCAR found :  4 types and      75 ions
 scaLAPACK will be used

 ----------------------------------------------------------------------------- 
|                                                                             |
|           W    W    AA    RRRRR   N    N  II  N    N   GGGG   !!!           |
|           W    W   A  A   R    R  NN   N  II  NN   N  G    G  !!!           |
|           W    W  A    A  R    R  N N  N  II  N N  N  G       !!!           |
|           W WW W  AAAAAA  RRRRR   N  N N  II  N  N N  G  GGG   !            |
|           WW  WW  A    A  R   R   N   NN  II  N   NN  G    G                |
|           W    W  A    A  R    R  N    N  II  N    N   GGGG   !!!           |
|                                                                             |
|      For optimal performance we recommend to set                            |
|        NCORE= 4 - approx SQRT( number of cores)                             |
|      NCORE specifies how many cores store one orbital (NPAR=cpu/NCORE).     |
|      This setting can  greatly improve the performance of VASP for DFT.     |
|      The default,   NCORE=1            might be grossly inefficient         |
|      on modern multi-core architectures or massively parallel machines.     |
|      Do your own testing !!!!                                               |
|      Unfortunately you need to use the default for GW and RPA calculations. |
|      (for HF NCORE is supported but not extensively tested yet)             |
|                                                                             |
 ----------------------------------------------------------------------------- 


 ----------------------------------------------------------------------------- 
|                                                                             |
|  ADVICE TO THIS USER RUNNING 'VASP/VAMP'   (HEAR YOUR MASTER'S VOICE ...):  |
|                                                                             |
|      You have a (more or less) 'large supercell' and for larger cells       |
|      it might be more efficient to use real space projection opertators     |
|      So try LREAL= Auto  in the INCAR   file.                               |
|      Mind:          For very  accurate calculation you might also keep the  |
|      reciprocal projection scheme          (i.e. LREAL=.FALSE.)             |
|                                                                             |
 ----------------------------------------------------------------------------- 

 LDA part: xc-table for Pade appr. of Perdew
 POSCAR, INCAR and KPOINTS ok, starting setup
 FFT: planning ...
 WAVECAR not read
 entering main loop
       N       E                     dE             d eps       ncg     rms          rms(c)
DAV:   1     0.752563850077E+04    0.75256E+04   -0.30586E+05 11648   0.174E+03
DAV:   2     0.838561400065E+03   -0.66871E+04   -0.63350E+04 11752   0.557E+02
DAV:   3    -0.617540804076E+03   -0.14561E+04   -0.14155E+04 16656   0.233E+02
DAV:   4    -0.727263379558E+03   -0.10972E+03   -0.10849E+03 17184   0.703E+01
DAV:   5    -0.736808409609E+03   -0.95450E+01   -0.94712E+01 21928   0.171E+01    0.931E+01
DAV:   6    -0.606661802109E+03    0.13015E+03   -0.76498E+02 16472   0.636E+01    0.568E+01
DAV:   7    -0.609613644440E+03   -0.29518E+01   -0.14489E+02 16348   0.280E+01    0.402E+01
DAV:   8    -0.611627988898E+03   -0.20143E+01   -0.45099E+01 17048   0.210E+01    0.203E+01
DAV:   9    -0.608055197152E+03    0.35728E+01   -0.30817E+01 16016   0.137E+01    0.123E+01
DAV:  10    -0.607003377677E+03    0.10518E+01   -0.17252E+01 15984   0.821E+00    0.577E+00
DAV:  11    -0.606643662092E+03    0.35972E+00   -0.50371E+00 17152   0.452E+00    0.386E+00
DAV:  12    -0.606483515667E+03    0.16015E+00   -0.21285E+00 17120   0.289E+00    0.281E+00
DAV:  13    -0.606479198828E+03    0.43168E-02   -0.13567E+00 16160   0.195E+00    0.224E+00
DAV:  14    -0.606472332744E+03    0.68661E-02   -0.81641E-01 16400   0.163E+00    0.191E+00
DAV:  15    -0.606423449859E+03    0.48883E-01   -0.29452E-01 16536   0.120E+00    0.635E-01
DAV:  16    -0.606424015357E+03   -0.56550E-03   -0.61621E-02 18112   0.587E-01    0.473E-01
DAV:  17    -0.606421854697E+03    0.21607E-02   -0.34468E-02 17312   0.349E-01    0.313E-01
DAV:  18    -0.606422079012E+03   -0.22431E-03   -0.95287E-03 17752   0.195E-01    0.195E-01
DAV:  19    -0.606422568713E+03   -0.48970E-03   -0.71300E-03 17608   0.145E-01    0.217E-01
DAV:  20    -0.606421771854E+03    0.79686E-03   -0.51448E-03 16904   0.108E-01    0.131E-01
DAV:  21    -0.606422192184E+03   -0.42033E-03   -0.21344E-03 16240   0.759E-02    0.124E-01
DAV:  22    -0.606422108218E+03    0.83967E-04   -0.19426E-03 15864   0.542E-02    0.103E-01
DAV:  23    -0.606422121363E+03   -0.13146E-04   -0.10837E-03 12856   0.357E-02    0.787E-02
DAV:  24    -0.606422153261E+03   -0.31898E-04   -0.55697E-04  9504   0.248E-02    0.662E-02
DAV:  25    -0.606422176282E+03   -0.23021E-04   -0.42044E-04  7464   0.164E-02    0.624E-02
DAV:  26    -0.606422176420E+03   -0.13840E-06   -0.99731E-05  6848   0.113E-02
   1 F= -.60642218E+03 E0= -.60642218E+03  d E =-.606422E+03
 curvature:   0.00 expect dE= 0.000E+00 dE for cont linesearch  0.000E+00
 trial: gam= 0.00000 g(F)=  0.106E+01 g(S)=  0.349E+01 ort = 0.000E+00 (trialstep = 0.100E+01)
 search vector abs. value=  0.455E+01
 bond charge predicted
       N       E                     dE             d eps       ncg     rms          rms(c)
DAV:   1    -0.628207637349E+03   -0.21785E+02   -0.89229E+02 14624   0.836E+01    0.415E+01
DAV:   2    -0.615386857089E+03    0.12821E+02   -0.13416E+02 14944   0.315E+01    0.203E+01
DAV:   3    -0.610698266278E+03    0.46886E+01   -0.42108E+01 17568   0.182E+01    0.181E+01
DAV:   4    -0.610193663565E+03    0.50460E+00   -0.51096E+01 15320   0.145E+01    0.153E+01
DAV:   5    -0.607854318824E+03    0.23393E+01   -0.16268E+01 17244   0.957E+00    0.927E+00
DAV:   6    -0.607346343960E+03    0.50797E+00   -0.70722E+00 17824   0.632E+00    0.821E+00
DAV:   7    -0.606918890977E+03    0.42745E+00   -0.58923E+00 17992   0.408E+00    0.600E+00
DAV:   8    -0.606801485345E+03    0.11741E+00   -0.16972E+00 17096   0.270E+00    0.429E+00
DAV:   9    -0.606862788550E+03   -0.61303E-01   -0.15536E+00 17968   0.192E+00    0.343E+00
DAV:  10    -0.606929973144E+03   -0.67185E-01   -0.20539E+00 16856   0.232E+00    0.299E+00
DAV:  11    -0.606835122713E+03    0.94850E-01   -0.90307E-01 17336   0.176E+00    0.160E+00
DAV:  12    -0.606806935703E+03    0.28187E-01   -0.27886E-01 17608   0.104E+00    0.877E-01
DAV:  13    -0.606803962685E+03    0.29730E-02   -0.99463E-02 16928   0.557E-01    0.759E-01
DAV:  14    -0.606800317919E+03    0.36448E-02   -0.39840E-02 16840   0.357E-01    0.483E-01
DAV:  15    -0.606800284092E+03    0.33826E-04   -0.12814E-02 17488   0.240E-01    0.372E-01
DAV:  16    -0.606800600464E+03   -0.31637E-03   -0.13476E-02 17112   0.176E-01    0.222E-01
DAV:  17    -0.606800212480E+03    0.38798E-03   -0.31777E-03 16264   0.136E-01    0.115E-01
DAV:  18    -0.606799926750E+03    0.28573E-03   -0.15371E-03 17656   0.807E-02    0.976E-02
DAV:  19    -0.606799971855E+03   -0.45105E-04   -0.15437E-03 17080   0.526E-02    0.757E-02
DAV:  20    -0.606799955420E+03    0.16434E-04   -0.55353E-04 15256   0.361E-02    0.385E-02
DAV:  21    -0.606799894301E+03    0.61120E-04   -0.27614E-04 11672   0.267E-02    0.411E-02
DAV:  22    -0.606799832767E+03    0.61534E-04   -0.58581E-05  7032   0.138E-02    0.152E-02
DAV:  23    -0.606799855505E+03   -0.22738E-04   -0.13883E-05  6744   0.828E-03    0.674E-03
DAV:  24    -0.606799874146E+03   -0.18641E-04   -0.60309E-06  6432   0.609E-03    0.604E-03
DAV:  25    -0.606799868518E+03    0.56286E-05   -0.10158E-05  6384   0.500E-03
   2 F= -.60679987E+03 E0= -.60679987E+03  d E =-.377692E+00
 trial-energy change:   -0.377692  1 .order   -0.487002   -4.552620    3.578617
 step:   0.5399(harm=  0.5599)  dis= 0.02600  next Energy=  -607.633858 (dE=-0.121E+01)
 bond charge predicted
       N       E                     dE             d eps       ncg     rms          rms(c)
DAV:   1    -0.612519271981E+03   -0.57194E+01   -0.19034E+02 14564   0.385E+01    0.191E+01
DAV:   2    -0.608914081704E+03    0.36052E+01   -0.24164E+01 14204   0.126E+01    0.864E+00
DAV:   3    -0.609382607273E+03   -0.46853E+00   -0.13688E+01 16136   0.966E+00    0.864E+00
DAV:   4    -0.607963368422E+03    0.14192E+01   -0.49185E+00 15496   0.695E+00    0.456E+00
DAV:   5    -0.607666011795E+03    0.29736E+00   -0.26617E+00 15740   0.334E+00    0.292E+00
DAV:   6    -0.607623323598E+03    0.42688E-01   -0.10832E+00 17528   0.251E+00    0.246E+00
DAV:   7    -0.607607282267E+03    0.16041E-01   -0.72573E-01 16800   0.150E+00    0.187E+00
DAV:   8    -0.607602424269E+03    0.48580E-02   -0.38964E-01 16560   0.964E-01    0.151E+00
DAV:   9    -0.607602558669E+03   -0.13440E-03   -0.14508E-01 17632   0.593E-01    0.119E+00
DAV:  10    -0.607616407221E+03   -0.13849E-01   -0.70118E-02 18160   0.543E-01    0.979E-01
DAV:  11    -0.607631979582E+03   -0.15572E-01   -0.89530E-02 17368   0.618E-01    0.741E-01
DAV:  12    -0.607626600895E+03    0.53787E-02   -0.56070E-02 17608   0.491E-01    0.313E-01
DAV:  13    -0.607627138549E+03   -0.53765E-03   -0.31660E-02 17288   0.276E-01    0.321E-01
DAV:  14    -0.607626208298E+03    0.93025E-03   -0.96348E-03 16416   0.171E-01    0.128E-01
DAV:  15    -0.607626461750E+03   -0.25345E-03   -0.11947E-03 17696   0.748E-02    0.927E-02
DAV:  16    -0.607626510483E+03   -0.48733E-04   -0.13183E-03 16392   0.503E-02    0.715E-02
DAV:  17    -0.607626562148E+03   -0.51665E-04   -0.94088E-04 15904   0.382E-02    0.821E-02
DAV:  18    -0.607626507179E+03    0.54969E-04   -0.56780E-04 13328   0.317E-02    0.388E-02
DAV:  19    -0.607626563819E+03   -0.56640E-04   -0.10630E-04  8456   0.158E-02    0.299E-02
DAV:  20    -0.607626530971E+03    0.32847E-04   -0.63367E-05  7168   0.134E-02    0.201E-02
DAV:  21    -0.607626525782E+03    0.51888E-05   -0.41839E-05  6816   0.112E-02
   3 F= -.60762653E+03 E0= -.60762653E+03  d E =-.120435E+01
 curvature:  -0.28 expect dE=-0.916E-01 dE for cont linesearch -0.312E-03
 ZBRENT: interpolating
 opt :   0.5315  next Energy=  -607.626822 (dE=-0.120E+01)
 bond charge predicted
       N       E                     dE             d eps       ncg     rms          rms(c)
DAV:   1    -0.607628048491E+03   -0.15175E-02   -0.62418E-02 14608   0.700E-01    0.343E-01
DAV:   2    -0.607627520681E+03    0.52781E-03   -0.90972E-03 14232   0.238E-01    0.198E-01
DAV:   3    -0.607627672979E+03   -0.15230E-03   -0.30389E-02 16048   0.263E-01    0.375E-01
DAV:   4    -0.607626807990E+03    0.86499E-03   -0.30905E-02 15576   0.242E-01    0.290E-01
DAV:   5    -0.607626535654E+03    0.27234E-03   -0.11495E-02 14960   0.165E-01    0.164E-01
DAV:   6    -0.607626659415E+03   -0.12376E-03   -0.39378E-03 16480   0.808E-02    0.147E-01
DAV:   7    -0.607626552467E+03    0.10695E-03   -0.21022E-03 15184   0.534E-02    0.934E-02
DAV:   8    -0.607626673193E+03   -0.12073E-03   -0.33870E-04 12984   0.422E-02    0.410E-02
DAV:   9    -0.607626667097E+03    0.60959E-05   -0.21900E-04  9976   0.244E-02    0.490E-02
DAV:  10    -0.607626608873E+03    0.58224E-04   -0.21237E-04  7992   0.203E-02    0.383E-02
DAV:  11    -0.607626665244E+03   -0.56371E-04   -0.10917E-04  8152   0.183E-02    0.291E-02
DAV:  12    -0.607626695997E+03   -0.30753E-04   -0.50107E-05  8976   0.180E-02    0.353E-02
DAV:  13    -0.607626645131E+03    0.50866E-04   -0.10404E-04  7344   0.141E-02    0.245E-02
DAV:  14    -0.607626654612E+03   -0.94811E-05   -0.34743E-05  6800   0.101E-02
   4 F= -.60762665E+03 E0= -.60762665E+03  d E =-.120448E+01
 curvature:  -0.27 expect dE=-0.844E-01 dE for cont linesearch -0.306E-05
 trial: gam= 0.07138 g(F)=  0.265E+00 g(S)=  0.531E-01 ort =-0.724E-02 (trialstep = 0.906E+00)
 search vector abs. value=  0.340E+00
 bond charge predicted
       N       E                     dE             d eps       ncg     rms          rms(c)
DAV:   1    -0.607674625090E+03   -0.47980E-01   -0.34819E+01 14064   0.147E+01    0.266E+00
DAV:   2    -0.607847325569E+03   -0.17270E+00   -0.27563E+00 12844   0.356E+00    0.206E+00
DAV:   3    -0.607861438860E+03   -0.14113E-01   -0.47651E-01 18136   0.148E+00    0.158E+00
DAV:   4    -0.607857446762E+03    0.39921E-02   -0.43386E-01 15960   0.120E+00    0.139E+00
DAV:   5    -0.607876629993E+03   -0.19183E-01   -0.71930E-01 15744   0.127E+00    0.166E+00
DAV:   6    -0.607847724708E+03    0.28905E-01   -0.28986E-01 15160   0.932E-01    0.863E-01
DAV:   7    -0.607839533812E+03    0.81909E-02   -0.63160E-02 16688   0.460E-01    0.464E-01
DAV:   8    -0.607838809627E+03    0.72418E-03   -0.22449E-02 16864   0.294E-01    0.297E-01
DAV:   9    -0.607838669205E+03    0.14042E-03   -0.59069E-03 18868   0.150E-01    0.233E-01
DAV:  10    -0.607838931140E+03   -0.26193E-03   -0.71248E-03 18184   0.114E-01    0.236E-01
DAV:  11    -0.607839081395E+03   -0.15025E-03   -0.77143E-03 16644   0.119E-01    0.216E-01
DAV:  12    -0.607838785031E+03    0.29636E-03   -0.35894E-03 15760   0.111E-01    0.136E-01
DAV:  13    -0.607838911159E+03   -0.12613E-03   -0.12483E-03 16256   0.581E-02    0.782E-02
DAV:  14    -0.607838882644E+03    0.28515E-04   -0.53220E-04 13352   0.313E-02    0.738E-02
DAV:  15    -0.607838830548E+03    0.52095E-04   -0.25626E-04  8440   0.185E-02    0.471E-02
DAV:  16    -0.607838859238E+03   -0.28690E-04   -0.16785E-04  7696   0.161E-02    0.627E-02
DAV:  17    -0.607838870928E+03   -0.11690E-04   -0.16541E-04  7296   0.131E-02    0.405E-02
DAV:  18    -0.607838849753E+03    0.21175E-04   -0.49398E-05  6744   0.992E-03    0.277E-02
DAV:  19    -0.607838844987E+03    0.47658E-05   -0.64370E-05  6360   0.669E-03
   5 F= -.60783884E+03 E0= -.60783884E+03  d E =-.212190E+00
 trial-energy change:   -0.212190  1 .order   -0.208245   -0.287472   -0.129019
 step:   1.4981(harm=  1.6443)  dis= 0.05673  next Energy=  -607.882068 (dE=-0.255E+00)
 bond charge predicted
       N       E                     dE             d eps       ncg     rms          rms(c)
DAV:   1    -0.607819484549E+03    0.19365E-01   -0.14842E+01 14192   0.966E+00    0.174E+00
DAV:   2    -0.607893533883E+03   -0.74049E-01   -0.11631E+00 12900   0.233E+00    0.136E+00
DAV:   3    -0.607899050216E+03   -0.55163E-02   -0.17440E-01 18312   0.944E-01    0.105E+00
DAV:   4    -0.607901888185E+03   -0.28380E-02   -0.22229E-01 15800   0.837E-01    0.117E+00
DAV:   5    -0.607904629387E+03   -0.27412E-02   -0.23888E-01 15720   0.867E-01    0.103E+00
DAV:   6    -0.607893879389E+03    0.10750E-01   -0.14033E-01 15176   0.619E-01    0.688E-01
DAV:   7    -0.607890969953E+03    0.29094E-02   -0.71493E-02 15752   0.402E-01    0.457E-01
DAV:   8    -0.607890064656E+03    0.90530E-03   -0.22111E-02 15944   0.249E-01    0.235E-01
DAV:   9    -0.607890085563E+03   -0.20907E-04   -0.49882E-03 19508   0.992E-02    0.187E-01
DAV:  10    -0.607890067832E+03    0.17731E-04   -0.24829E-03 16928   0.716E-02    0.151E-01
DAV:  11    -0.607890076158E+03   -0.83253E-05   -0.22196E-03 15672   0.665E-02    0.169E-01
DAV:  12    -0.607890058345E+03    0.17812E-04   -0.40940E-03 15656   0.710E-02    0.140E-01
DAV:  13    -0.607890175902E+03   -0.11756E-03   -0.65279E-04 13992   0.608E-02    0.793E-02
DAV:  14    -0.607890149418E+03    0.26485E-04   -0.15028E-04 11504   0.331E-02    0.523E-02
DAV:  15    -0.607890166308E+03   -0.16890E-04   -0.39810E-05  7872   0.164E-02    0.465E-02
DAV:  16    -0.607890176624E+03   -0.10316E-04   -0.17625E-05  6880   0.108E-02    0.311E-02
DAV:  17    -0.607890192617E+03   -0.15994E-04   -0.54090E-05  6808   0.794E-03    0.802E-02
DAV:  18    -0.607890163509E+03    0.29108E-04   -0.32049E-04  6712   0.864E-03    0.304E-02
DAV:  19    -0.607890185094E+03   -0.21585E-04   -0.92612E-06  6304   0.495E-03    0.200E-02
DAV:  20    -0.607890181581E+03    0.35128E-05   -0.34075E-06  6296   0.379E-03
   6 F= -.60789018E+03 E0= -.60789018E+03  d E =-.263527E+00
 curvature:  -0.85 expect dE=-0.120E+00 dE for cont linesearch -0.141E-02
 trial: gam= 0.38909 g(F)=  0.134E+00 g(S)=  0.758E-02 ort = 0.238E-01 (trialstep = 0.102E+01)
 search vector abs. value=  0.212E+00
 bond charge predicted
       N       E                     dE             d eps       ncg     rms          rms(c)
DAV:   1    -0.607844352141E+03    0.45833E-01   -0.31394E+01 12848   0.135E+01    0.188E+00
DAV:   2    -0.607991326575E+03   -0.14697E+00   -0.19950E+00 12920   0.322E+00    0.155E+00
DAV:   3    -0.608014994832E+03   -0.23668E-01   -0.38468E-01 18992   0.125E+00    0.152E+00
DAV:   4    -0.608004721708E+03    0.10273E-01   -0.28252E-01 15320   0.100E+00    0.126E+00
DAV:   5    -0.607995980567E+03    0.87411E-02   -0.17514E-01 15452   0.738E-01    0.834E-01
DAV:   6    -0.608010094280E+03   -0.14114E-01   -0.30812E-01 15960   0.860E-01    0.117E+00
DAV:   7    -0.607992689006E+03    0.17405E-01   -0.10905E-01 15384   0.641E-01    0.302E-01
DAV:   8    -0.607991777230E+03    0.91178E-03   -0.16406E-02 18856   0.239E-01    0.257E-01
DAV:   9    -0.607991622376E+03    0.15485E-03   -0.44726E-03 16984   0.134E-01    0.146E-01
DAV:  10    -0.607991713642E+03   -0.91266E-04   -0.20026E-03 16760   0.862E-02    0.121E-01
DAV:  11    -0.607991540424E+03    0.17322E-03   -0.16009E-03 15760   0.763E-02    0.856E-02
DAV:  12    -0.607991804741E+03   -0.26432E-03   -0.14266E-03 15416   0.712E-02    0.691E-02
DAV:  13    -0.607991684764E+03    0.11998E-03   -0.68073E-04 13096   0.444E-02    0.284E-02
DAV:  14    -0.607991683887E+03    0.87744E-06   -0.78783E-05  8968   0.203E-02
   7 F= -.60799168E+03 E0= -.60799168E+03  d E =-.101502E+00
 trial-energy change:   -0.101502  1 .order   -0.101708   -0.154613   -0.048804
 step:   1.4973(harm=  1.4973)  dis= 0.04740  next Energy=  -608.003145 (dE=-0.113E+00)
 bond charge predicted
       N       E                     dE             d eps       ncg     rms          rms(c)
DAV:   1    -0.607971706988E+03    0.19978E-01   -0.66768E+00 12968   0.622E+00    0.868E-01
DAV:   2    -0.608001110599E+03   -0.29404E-01   -0.42491E-01 13032   0.148E+00    0.736E-01
DAV:   3    -0.608009542251E+03   -0.84317E-02   -0.12694E-01 18472   0.645E-01    0.851E-01
DAV:   4    -0.608004068877E+03    0.54734E-02   -0.70638E-02 15096   0.548E-01    0.531E-01
DAV:   5    -0.608002707666E+03    0.13612E-02   -0.57477E-02 15648   0.361E-01    0.486E-01
DAV:   6    -0.608003690024E+03   -0.98236E-03   -0.85104E-02 15808   0.425E-01    0.514E-01
DAV:   7    -0.608001868399E+03    0.18216E-02   -0.19224E-02 15496   0.333E-01    0.152E-01
DAV:   8    -0.608001283255E+03    0.58514E-03   -0.27315E-03 18896   0.117E-01    0.106E-01
DAV:   9    -0.608001352561E+03   -0.69306E-04   -0.88834E-04 16928   0.585E-02    0.706E-02
DAV:  10    -0.608001281171E+03    0.71390E-04   -0.32598E-04 14672   0.409E-02    0.575E-02
DAV:  11    -0.608001424253E+03   -0.14308E-03   -0.70875E-04 12568   0.433E-02    0.835E-02
DAV:  12    -0.608001389278E+03    0.34975E-04   -0.67942E-04 10784   0.361E-02    0.395E-02
DAV:  13    -0.608001336102E+03    0.53176E-04   -0.19277E-04  8896   0.237E-02    0.334E-02
DAV:  14    -0.608001364685E+03   -0.28583E-04   -0.91036E-05  7680   0.165E-02    0.152E-02
DAV:  15    -0.608001365957E+03   -0.12718E-05   -0.56654E-06  6656   0.659E-03
   8 F= -.60800137E+03 E0= -.60800137E+03  d E =-.111184E+00
 curvature:  -1.05 expect dE=-0.659E-01 dE for cont linesearch -0.139E-05
 trial: gam= 0.51170 g(F)=  0.578E-01 g(S)=  0.503E-02 ort = 0.530E-03 (trialstep = 0.112E+01)
 search vector abs. value=  0.119E+00
 bond charge predicted
       N       E                     dE             d eps       ncg     rms          rms(c)
DAV:   1    -0.607923033078E+03    0.78332E-01   -0.21661E+01 13336   0.121E+01    0.184E+00
DAV:   2    -0.608037110927E+03   -0.11408E+00   -0.16608E+00 12664   0.286E+00    0.127E+00
DAV:   3    -0.608047411737E+03   -0.10301E-01   -0.21817E-01 19544   0.959E-01    0.103E+00
DAV:   4    -0.608053319551E+03   -0.59078E-02   -0.33550E-01 15928   0.953E-01    0.113E+00
DAV:   5    -0.608047506191E+03    0.58134E-02   -0.21978E-01 15656   0.872E-01    0.100E+00
DAV:   6    -0.608038156152E+03    0.93500E-02   -0.97242E-02 15984   0.568E-01    0.436E-01
DAV:   7    -0.608038221612E+03   -0.65459E-04   -0.27528E-02 17040   0.273E-01    0.347E-01
DAV:   8    -0.608038275829E+03   -0.54217E-04   -0.12271E-02 16280   0.197E-01    0.289E-01
DAV:   9    -0.608038147040E+03    0.12879E-03   -0.60076E-03 17856   0.116E-01    0.164E-01
DAV:  10    -0.608038020113E+03    0.12693E-03   -0.19289E-03 16896   0.844E-02    0.159E-01
DAV:  11    -0.608038356637E+03   -0.33652E-03   -0.45306E-03 15808   0.890E-02    0.214E-01
DAV:  12    -0.608038192250E+03    0.16439E-03   -0.51146E-03 15664   0.831E-02    0.143E-01
DAV:  13    -0.608038289737E+03   -0.97487E-04   -0.17910E-03 14816   0.577E-02    0.786E-02
DAV:  14    -0.608038371598E+03   -0.81862E-04   -0.52047E-04 13680   0.340E-02    0.442E-02
DAV:  15    -0.608038314594E+03    0.57005E-04   -0.18081E-04  8328   0.190E-02    0.410E-02
DAV:  16    -0.608038319178E+03   -0.45842E-05   -0.97696E-05  7456   0.150E-02
   9 F= -.60803832E+03 E0= -.60803832E+03  d E =-.369532E-01
 trial-energy change:   -0.036953  1 .order   -0.031282   -0.070574    0.008009
 step:   1.0378(harm=  1.0051)  dis= 0.02389  next Energy=  -608.038608 (dE=-0.372E-01)
 bond charge predicted
       N       E                     dE             d eps       ncg     rms          rms(c)
DAV:   1    -0.608037579936E+03    0.73466E-03   -0.11500E-01 13172   0.881E-01    0.144E-01
DAV:   2    -0.608039182960E+03   -0.16030E-02   -0.17697E-02 13184   0.255E-01    0.345E-01
DAV:   3    -0.608038297501E+03    0.88546E-03   -0.11631E-02 14308   0.176E-01    0.136E-01
DAV:   4    -0.608038394959E+03   -0.97458E-04   -0.82578E-03 17312   0.108E-01    0.231E-01
DAV:   5    -0.608038241852E+03    0.15311E-03   -0.47582E-03 15336   0.935E-02    0.869E-02
DAV:   6    -0.608038464891E+03   -0.22304E-03   -0.12258E-03 15840   0.550E-02    0.692E-02
DAV:   7    -0.608038521107E+03   -0.56216E-04   -0.12873E-03 14088   0.503E-02    0.103E-01
DAV:   8    -0.608038413460E+03    0.10765E-03   -0.10060E-03 11040   0.378E-02    0.490E-02
DAV:   9    -0.608038340877E+03    0.72582E-04   -0.27670E-04  9232   0.248E-02    0.525E-02
DAV:  10    -0.608038358205E+03   -0.17327E-04   -0.32047E-04  7896   0.193E-02    0.430E-02
DAV:  11    -0.608038362845E+03   -0.46402E-05   -0.90002E-05  7440   0.150E-02
  10 F= -.60803836E+03 E0= -.60803836E+03  d E =-.369969E-01
 curvature:  -0.87 expect dE=-0.987E-02 dE for cont linesearch -0.369E-04
 trial: gam= 0.18473 g(F)=  0.947E-02 g(S)=  0.189E-02 ort =-0.225E-02 (trialstep = 0.110E+01)
 search vector abs. value=  0.146E-01
 bond charge predicted
       N       E                     dE             d eps       ncg     rms          rms(c)
DAV:   1    -0.608032580209E+03    0.57780E-02   -0.29863E+00 13340   0.492E+00    0.890E-01
DAV:   2    -0.608047442995E+03   -0.14863E-01   -0.29228E-01 13084   0.126E+00    0.681E-01
DAV:   3    -0.608051524511E+03   -0.40815E-02   -0.11938E-01 16280   0.669E-01    0.825E-01
DAV:   4    -0.608048174017E+03    0.33505E-02   -0.11840E-01 14848   0.547E-01    0.629E-01
DAV:   5    -0.608045227044E+03    0.29470E-02   -0.67001E-02 14880   0.405E-01    0.410E-01
DAV:   6    -0.608045060242E+03    0.16680E-03   -0.33740E-02 16672   0.288E-01    0.385E-01
DAV:   7    -0.608044439584E+03    0.62066E-03   -0.13323E-02 16400   0.210E-01    0.207E-01
DAV:   8    -0.608044463201E+03   -0.23617E-04   -0.49041E-03 16488   0.107E-01    0.169E-01
DAV:   9    -0.608044466548E+03   -0.33469E-05   -0.12710E-03 18040   0.516E-02    0.100E-01
DAV:  10    -0.608044522703E+03   -0.56155E-04   -0.54115E-04 13552   0.328E-02    0.110E-01
DAV:  11    -0.608044472025E+03    0.50678E-04   -0.79698E-04 12888   0.453E-02    0.905E-02
DAV:  12    -0.608044757759E+03   -0.28573E-03   -0.16450E-03 13248   0.573E-02    0.208E-01
DAV:  13    -0.608044436640E+03    0.32112E-03   -0.21941E-03 11960   0.468E-02    0.571E-02
DAV:  14    -0.608044584872E+03   -0.14823E-03   -0.17566E-04 10296   0.265E-02    0.271E-02
DAV:  15    -0.608044563051E+03    0.21821E-04   -0.10723E-04  7688   0.171E-02    0.412E-02
DAV:  16    -0.608044562343E+03    0.70769E-06   -0.10767E-04  7040   0.120E-02    0.562E-02
DAV:  17    -0.608044550061E+03    0.12282E-04   -0.10896E-04  6784   0.910E-03    0.294E-02
DAV:  18    -0.608044568601E+03   -0.18539E-04   -0.32557E-05  6560   0.725E-03    0.316E-02
DAV:  19    -0.608044563629E+03    0.49716E-05   -0.43728E-05  6224   0.499E-03
  11 F= -.60804456E+03 E0= -.60804456E+03  d E =-.620078E-02
 trial-energy change:   -0.006201  1 .order   -0.005826   -0.012078    0.000426
 step:   1.0709(harm=  1.0653)  dis= 0.00581  next Energy=  -608.044570 (dE=-0.621E-02)
 bond charge predicted
       N       E                     dE             d eps       ncg     rms          rms(c)
DAV:   1    -0.608044553455E+03    0.15146E-04   -0.26044E-03 13408   0.143E-01    0.524E-02
DAV:   2    -0.608044620773E+03   -0.67318E-04   -0.40432E-03 15344   0.921E-02    0.177E-01
DAV:   3    -0.608044591386E+03    0.29387E-04   -0.14011E-03 13280   0.767E-02    0.820E-02
DAV:   4    -0.608044569055E+03    0.22331E-04   -0.10583E-03 10024   0.343E-02    0.853E-02
DAV:   5    -0.608044549501E+03    0.19555E-04   -0.71775E-04  9184   0.233E-02    0.104E-01
DAV:   6    -0.608044510211E+03    0.39289E-04   -0.57649E-04  8600   0.182E-02    0.581E-02
DAV:   7    -0.608044556880E+03   -0.46669E-04   -0.12043E-04  7576   0.180E-02    0.307E-02
DAV:   8    -0.608044593293E+03   -0.36413E-04   -0.81880E-05  7200   0.929E-03    0.470E-02
DAV:   9    -0.608044551212E+03    0.42081E-04   -0.14696E-04  7056   0.104E-02    0.334E-02
DAV:  10    -0.608044566398E+03   -0.15186E-04   -0.23051E-05  6752   0.829E-03    0.262E-02
DAV:  11    -0.608044553959E+03    0.12439E-04   -0.67178E-05  6296   0.408E-03    0.380E-02
DAV:  12    -0.608044578142E+03   -0.24184E-04   -0.29203E-05  6176   0.523E-03    0.197E-02
DAV:  13    -0.608044566704E+03    0.11438E-04   -0.19131E-05  6108   0.305E-03    0.366E-02
DAV:  14    -0.608044573191E+03   -0.64874E-05   -0.36671E-05  6084   0.226E-03
  12 F= -.60804457E+03 E0= -.60804457E+03  d E =-.621035E-02
 curvature:  -0.69 expect dE=-0.262E-02 dE for cont linesearch -0.154E-05
 trial: gam= 0.30755 g(F)=  0.311E-02 g(S)=  0.663E-03 ort =-0.180E-03 (trialstep = 0.110E+01)
 search vector abs. value=  0.504E-02
 bond charge predicted
       N       E                     dE             d eps       ncg     rms          rms(c)
DAV:   1    -0.608042857226E+03    0.17095E-02   -0.10197E+00 12376   0.240E+00    0.444E-01
DAV:   2    -0.608047827045E+03   -0.49698E-02   -0.65987E-02 13384   0.615E-01    0.442E-01
DAV:   3    -0.608047328746E+03    0.49830E-03   -0.51026E-02 16656   0.355E-01    0.493E-01
DAV:   4    -0.608046375555E+03    0.95319E-03   -0.28711E-02 14912   0.290E-01    0.336E-01
DAV:   5    -0.608046092126E+03    0.28343E-03   -0.23734E-02 15264   0.225E-01    0.213E-01
DAV:   6    -0.608047142022E+03   -0.10499E-02   -0.15144E-02 16880   0.189E-01    0.271E-01
DAV:   7    -0.608046418663E+03    0.72336E-03   -0.74240E-03 15892   0.164E-01    0.105E-01
DAV:   8    -0.608046334522E+03    0.84141E-04   -0.27877E-03 18960   0.779E-02    0.164E-01
DAV:   9    -0.608046025649E+03    0.30887E-03   -0.25895E-03 15108   0.665E-02    0.970E-02
DAV:  10    -0.608046177346E+03   -0.15170E-03   -0.44957E-04 11592   0.389E-02    0.361E-02
DAV:  11    -0.608046217162E+03   -0.39816E-04   -0.62706E-05 10908   0.222E-02    0.288E-02
DAV:  12    -0.608046276736E+03   -0.59574E-04   -0.41950E-05  9080   0.210E-02    0.168E-02
DAV:  13    -0.608046194811E+03    0.81925E-04   -0.17130E-05  7484   0.145E-02    0.822E-03
DAV:  14    -0.608046206356E+03   -0.11545E-04   -0.70469E-06  6736   0.959E-03    0.477E-03
DAV:  15    -0.608046205307E+03    0.10496E-05   -0.38292E-06  6280   0.543E-03
  13 F= -.60804621E+03 E0= -.60804621E+03  d E =-.163212E-02
 trial-energy change:   -0.001632  1 .order   -0.002520   -0.004074   -0.000966
 step:   1.4373(harm=  1.4373)  dis= 0.00564  next Energy=  -608.047244 (dE=-0.267E-02)
 bond charge predicted
       N       E                     dE             d eps       ncg     rms          rms(c)
DAV:   1    -0.608045569545E+03    0.63681E-03   -0.98268E-02 12376   0.746E-01    0.136E-01
DAV:   2    -0.608046273250E+03   -0.70371E-03   -0.59698E-03 13336   0.188E-01    0.102E-01
DAV:   3    -0.608045906959E+03    0.36629E-03   -0.32809E-03 17656   0.905E-02    0.151E-01
DAV:   4    -0.608045843687E+03    0.63272E-04   -0.22927E-03 15296   0.727E-02    0.752E-02
DAV:   5    -0.608046125137E+03   -0.28145E-03   -0.22313E-03 13616   0.654E-02    0.124E-01
DAV:   6    -0.608046166042E+03   -0.40905E-04   -0.30075E-03 12744   0.640E-02    0.914E-02
DAV:   7    -0.608045937731E+03    0.22831E-03   -0.10040E-03 12608   0.459E-02    0.556E-02
DAV:   8    -0.608046032409E+03   -0.94678E-04   -0.22583E-04  9744   0.357E-02    0.239E-02
DAV:   9    -0.608045993783E+03    0.38626E-04   -0.51738E-05  7864   0.180E-02    0.177E-02
DAV:  10    -0.608046004403E+03   -0.10620E-04   -0.14411E-05  6864   0.105E-02    0.107E-02
DAV:  11    -0.608046010703E+03   -0.62998E-05   -0.76335E-06  6696   0.827E-03
  14 F= -.60804601E+03 E0= -.60804601E+03  d E =-.143751E-02
 curvature:  -0.97 expect dE=-0.274E-02 dE for cont linesearch -0.724E-06
 trial: gam= 0.74859 g(F)=  0.242E-02 g(S)=  0.390E-03 ort =-0.612E-04 (trialstep = 0.106E+01)
 search vector abs. value=  0.555E-02
 bond charge predicted
       N       E                     dE             d eps       ncg     rms          rms(c)
DAV:   1    -0.608044974550E+03    0.10299E-02   -0.10025E+00 12868   0.217E+00    0.330E-01
DAV:   2    -0.608047199166E+03   -0.22246E-02   -0.41964E-02 13240   0.468E-01    0.271E-01
DAV:   3    -0.608048011143E+03   -0.81198E-03   -0.14358E-02 18032   0.214E-01    0.272E-01
DAV:   4    -0.608047725560E+03    0.28558E-03   -0.19171E-02 15984   0.192E-01    0.251E-01
DAV:   5    -0.608047324648E+03    0.40091E-03   -0.13049E-02 14928   0.162E-01    0.236E-01
DAV:   6    -0.608047228917E+03    0.95731E-04   -0.11024E-02 16640   0.140E-01    0.226E-01
DAV:   7    -0.608047055690E+03    0.17323E-03   -0.34815E-03 16684   0.102E-01    0.820E-02
DAV:   8    -0.608047221859E+03   -0.16617E-03   -0.25004E-04 15544   0.509E-02    0.473E-02
DAV:   9    -0.608047218945E+03    0.29139E-05   -0.76675E-05 10540   0.197E-02
  15 F= -.60804722E+03 E0= -.60804722E+03  d E =-.120824E-02
 trial-energy change:   -0.001208  1 .order   -0.001567   -0.002930   -0.000205
 step:   1.1379(harm=  1.1379)  dis= 0.00615  next Energy=  -608.047586 (dE=-0.158E-02)
 bond charge predicted
       N       E                     dE             d eps       ncg     rms          rms(c)
DAV:   1    -0.608047274586E+03   -0.52727E-04   -0.57637E-03 12812   0.167E-01    0.397E-02
DAV:   2    -0.608047232723E+03    0.41863E-04   -0.18078E-03 14088   0.772E-02    0.134E-01
DAV:   3    -0.608047259193E+03   -0.26470E-04   -0.21079E-03 12968   0.655E-02    0.640E-02
DAV:   4    -0.608047317387E+03   -0.58193E-04   -0.59853E-04  9216   0.353E-02    0.425E-02
DAV:   5    -0.608047289219E+03    0.28168E-04   -0.29901E-04  8584   0.208E-02    0.361E-02
DAV:   6    -0.608047251674E+03    0.37545E-04   -0.14187E-04  7496   0.172E-02    0.225E-02
DAV:   7    -0.608047294572E+03   -0.42898E-04   -0.40776E-05  7088   0.143E-02    0.101E-02
DAV:   8    -0.608047282396E+03    0.12176E-04   -0.10957E-05  6744   0.895E-03    0.696E-03
DAV:   9    -0.608047291640E+03   -0.92440E-05   -0.49127E-06  6584   0.758E-03
  16 F= -.60804729E+03 E0= -.60804729E+03  d E =-.128094E-02
 curvature:  -1.14 expect dE=-0.494E-03 dE for cont linesearch -0.200E-06
 trial: gam= 0.12917 g(F)=  0.394E-03 g(S)=  0.399E-04 ort = 0.312E-04 (trialstep = 0.107E+01)
 search vector abs. value=  0.534E-03
 bond charge predicted
       N       E                     dE             d eps       ncg     rms          rms(c)
DAV:   1    -0.608046922727E+03    0.35967E-03   -0.11475E-01 12848   0.888E-01    0.103E-01
DAV:   2    -0.608047398537E+03   -0.47581E-03   -0.91802E-03 13012   0.216E-01    0.129E-01
DAV:   3    -0.608047634115E+03   -0.23558E-03   -0.67180E-03 17056   0.110E-01    0.162E-01
DAV:   4    -0.608047577833E+03    0.56282E-04   -0.37372E-03 14728   0.796E-02    0.104E-01
DAV:   5    -0.608047524916E+03    0.52917E-04   -0.22533E-03 14400   0.577E-02    0.126E-01
DAV:   6    -0.608047474752E+03    0.50164E-04   -0.12022E-03 13224   0.450E-02    0.512E-02
DAV:   7    -0.608047586788E+03   -0.11204E-03   -0.14373E-04 11632   0.340E-02    0.249E-02
DAV:   8    -0.608047666653E+03   -0.79865E-04   -0.95775E-05  9008   0.300E-02    0.248E-02
DAV:   9    -0.608047540554E+03    0.12610E-03   -0.78249E-05  7832   0.198E-02    0.152E-02
DAV:  10    -0.608047582143E+03   -0.41589E-04   -0.14646E-05  7272   0.112E-02    0.635E-03
DAV:  11    -0.608047586729E+03   -0.45861E-05   -0.50304E-06  6524   0.715E-03
  17 F= -.60804759E+03 E0= -.60804759E+03  d E =-.295089E-03
 trial-energy change:   -0.000295  1 .order   -0.000215   -0.000470    0.000041
 step:   1.0293(harm=  0.9887)  dis= 0.00092  next Energy=  -608.047588 (dE=-0.296E-03)
 bond charge predicted
       N       E                     dE             d eps       ncg     rms          rms(c)
DAV:   1    -0.608047591894E+03   -0.97508E-05   -0.20227E-04 12416   0.374E-02    0.574E-03
DAV:   2    -0.608047600867E+03   -0.89729E-05   -0.18617E-05  7960   0.109E-02
  18 F= -.60804760E+03 E0= -.60804760E+03  d E =-.309227E-03
 curvature:  -0.47 expect dE=-0.102E-03 dE for cont linesearch -0.557E-07
 trial: gam= 0.52606 g(F)=  0.216E-03 g(S)=  0.268E-05 ort =-0.798E-05 (trialstep = 0.107E+01)
 search vector abs. value=  0.358E-03
 bond charge predicted
       N       E                     dE             d eps       ncg     rms          rms(c)
DAV:   1    -0.608047101994E+03    0.48990E-03   -0.75438E-02 12840   0.722E-01    0.791E-02
DAV:   2    -0.608047682075E+03   -0.58008E-03   -0.58879E-03 12984   0.162E-01    0.136E-01
DAV:   3    -0.608047519952E+03    0.16212E-03   -0.33065E-03 17532   0.768E-02    0.968E-02
DAV:   4    -0.608047487046E+03    0.32905E-04   -0.17098E-03 13856   0.527E-02    0.913E-02
DAV:   5    -0.608047509785E+03   -0.22739E-04   -0.13432E-03 10960   0.437E-02    0.586E-02
DAV:   6    -0.608047619925E+03   -0.11014E-03   -0.40199E-04 10288   0.360E-02    0.479E-02
DAV:   7    -0.608047633657E+03   -0.13732E-04   -0.15623E-04  8924   0.240E-02    0.192E-02
DAV:   8    -0.608047580983E+03    0.52674E-04   -0.36333E-05  8024   0.198E-02    0.141E-02
DAV:   9    -0.608047628963E+03   -0.47980E-04   -0.28171E-05  7040   0.145E-02    0.114E-02
DAV:  10    -0.608047589178E+03    0.39785E-04   -0.11627E-05  6688   0.879E-03    0.480E-03
DAV:  11    -0.608047609109E+03   -0.19931E-04   -0.30820E-06  6216   0.493E-03    0.379E-03
DAV:  12    -0.608047603183E+03    0.59262E-05   -0.15400E-06  6108   0.367E-03
  19 F= -.60804760E+03 E0= -.60804760E+03  d E =-.231635E-05
 trial-energy change:   -0.000002  1 .order   -0.000155   -0.000229   -0.000081
 step:   1.6450(harm=  1.6450)  dis= 0.00137  next Energy=  -608.047777 (dE=-0.176E-03)
 bond charge predicted
       N       E                     dE             d eps       ncg     rms          rms(c)
DAV:   1    -0.608047366163E+03    0.24295E-03   -0.22368E-02 12840   0.393E-01    0.441E-02
DAV:   2    -0.608047591924E+03   -0.22576E-03   -0.19996E-03 12988   0.910E-02    0.992E-02
DAV:   3    -0.608047508132E+03    0.83792E-04   -0.15057E-03 13824   0.530E-02    0.660E-02
DAV:   4    -0.608047498420E+03    0.97115E-05   -0.10151E-03 11488   0.360E-02    0.645E-02
DAV:   5    -0.608047501080E+03   -0.26600E-05   -0.45748E-04  8852   0.261E-02    0.216E-02
DAV:   6    -0.608047576639E+03   -0.75559E-04   -0.50604E-05  8280   0.191E-02    0.205E-02
DAV:   7    -0.608047557334E+03    0.19305E-04   -0.25039E-05  7556   0.142E-02    0.810E-03
DAV:   8    -0.608047567049E+03   -0.97147E-05   -0.11290E-05  6776   0.977E-03
  20 F= -.60804757E+03 E0= -.60804757E+03  d E =0.338180E-04
 curvature:  -1.37 expect dE=-0.268E-03 dE for cont linesearch -0.168E-05
 trial: gam= 0.75651 g(F)=  0.175E-03 g(S)=  0.203E-04 ort = 0.210E-04 (trialstep = 0.979E+00)
 search vector abs. value=  0.432E-03
 bond charge predicted
       N       E                     dE             d eps       ncg     rms          rms(c)
DAV:   1    -0.608047387683E+03    0.16965E-03   -0.79406E-02 12800   0.673E-01    0.778E-02
DAV:   2    -0.608047680594E+03   -0.29291E-03   -0.39443E-03 12872   0.140E-01    0.773E-02
DAV:   3    -0.608047588414E+03    0.92179E-04   -0.28892E-03 17328   0.805E-02    0.147E-01
DAV:   4    -0.608047585482E+03    0.29326E-05   -0.25073E-03 13320   0.639E-02    0.729E-02
DAV:   5    -0.608047671970E+03   -0.86488E-04   -0.79926E-04 11420   0.388E-02    0.443E-02
DAV:   6    -0.608047807115E+03   -0.13515E-03   -0.49174E-04 11056   0.347E-02    0.587E-02
DAV:   7    -0.608047611372E+03    0.19574E-03   -0.31037E-04 10124   0.325E-02    0.241E-02
DAV:   8    -0.608047644658E+03   -0.33286E-04   -0.34622E-05  8280   0.197E-02    0.101E-02
DAV:   9    -0.608047679715E+03   -0.35057E-04   -0.10393E-05  6744   0.990E-03    0.749E-03
DAV:  10    -0.608047658310E+03    0.21404E-04   -0.42931E-06  6296   0.659E-03    0.496E-03
DAV:  11    -0.608047655878E+03    0.24318E-05   -0.23801E-06  6204   0.426E-03
  21 F= -.60804766E+03 E0= -.60804766E+03  d E =-.888298E-04
 trial-energy change:   -0.000089  1 .order   -0.000136   -0.000207   -0.000064
 step:   1.4216(harm=  1.4216)  dis= 0.00130  next Energy=  -608.047717 (dE=-0.150E-03)
 bond charge predicted
       N       E                     dE             d eps       ncg     rms          rms(c)
DAV:   1    -0.608047621148E+03    0.37162E-04   -0.16218E-02 12760   0.304E-01    0.350E-02
DAV:   2    -0.608047644348E+03   -0.23200E-04   -0.80108E-04 12828   0.634E-02    0.331E-02
DAV:   3    -0.608047649521E+03   -0.51730E-05   -0.67071E-04 11876   0.360E-02    0.777E-02
DAV:   4    -0.608047666817E+03   -0.17295E-04   -0.64510E-04  9060   0.306E-02    0.303E-02
DAV:   5    -0.608047677663E+03   -0.10847E-04   -0.15543E-04  7604   0.157E-02    0.213E-02
DAV:   6    -0.608047655941E+03    0.21722E-04   -0.50762E-05  7496   0.146E-02    0.144E-02
DAV:   7    -0.608047633861E+03    0.22080E-04   -0.19096E-05  7272   0.128E-02    0.766E-03
DAV:   8    -0.608047680539E+03   -0.46678E-04   -0.84920E-06  6424   0.812E-03    0.571E-03
DAV:   9    -0.608047669695E+03    0.10844E-04   -0.34808E-06  6212   0.542E-03    0.292E-03
DAV:  10    -0.608047662676E+03    0.70191E-05   -0.13700E-06  6116   0.321E-03
  22 F= -.60804766E+03 E0= -.60804766E+03  d E =-.956277E-04
 curvature:  -1.45 expect dE=-0.190E-03 dE for cont linesearch -0.108E-06
 trial: gam= 0.70111 g(F)=  0.117E-03 g(S)=  0.132E-04 ort = 0.567E-05 (trialstep = 0.107E+01)
 search vector abs. value=  0.351E-03
 bond charge predicted
       N       E                     dE             d eps       ncg     rms          rms(c)
DAV:   1    -0.608047557643E+03    0.11205E-03   -0.78395E-02 12264   0.678E-01    0.749E-02
DAV:   2    -0.608047756120E+03   -0.19848E-03   -0.41543E-03 12928   0.147E-01    0.720E-02
DAV:   3    -0.608047977683E+03   -0.22156E-03   -0.21908E-03 18568   0.724E-02    0.152E-01
DAV:   4    -0.608047793475E+03    0.18421E-03   -0.24043E-03 13112   0.571E-02    0.753E-02
DAV:   5    -0.608047729624E+03    0.63851E-04   -0.11062E-03 10888   0.407E-02    0.539E-02
DAV:   6    -0.608047800675E+03   -0.71051E-04   -0.45540E-04 10288   0.326E-02    0.431E-02
DAV:   7    -0.608047906093E+03   -0.10542E-03   -0.34099E-04 10136   0.330E-02    0.514E-02
DAV:   8    -0.608047750620E+03    0.15547E-03   -0.20672E-04  8776   0.230E-02    0.131E-02
DAV:   9    -0.608047784154E+03   -0.33534E-04   -0.14233E-05  6952   0.114E-02    0.739E-03
DAV:  10    -0.608047782160E+03    0.19945E-05   -0.52684E-06  6464   0.760E-03
  23 F= -.60804778E+03 E0= -.60804778E+03  d E =-.119483E-03
 trial-energy change:   -0.000119  1 .order   -0.000078   -0.000144   -0.000012
 step:   1.0999(harm=  1.1629)  dis= 0.00087  next Energy=  -608.047782 (dE=-0.120E-03)
 bond charge predicted
       N       E                     dE             d eps       ncg     rms          rms(c)
DAV:   1    -0.608047781267E+03    0.28875E-05   -0.72595E-05 10696   0.214E-02    0.418E-03
DAV:   2    -0.608047798507E+03   -0.17241E-04   -0.69335E-06  6372   0.706E-03    0.642E-03
DAV:   3    -0.608047785894E+03    0.12614E-04   -0.12607E-05  6172   0.598E-03    0.911E-03
DAV:   4    -0.608047781525E+03    0.43691E-05   -0.85928E-06  6124   0.430E-03
  24 F= -.60804778E+03 E0= -.60804778E+03  d E =-.118848E-03
 curvature:  -0.85 expect dE=-0.552E-04 dE for cont linesearch -0.352E-07
 trial: gam= 0.52498 g(F)=  0.645E-04 g(S)=  0.286E-06 ort =-0.381E-05 (trialstep = 0.107E+01)
 search vector abs. value=  0.157E-03
 bond charge predicted
       N       E                     dE             d eps       ncg     rms          rms(c)
DAV:   1    -0.608047651841E+03    0.13405E-03   -0.38596E-02 12676   0.500E-01    0.447E-02
DAV:   2    -0.608047749350E+03   -0.97509E-04   -0.28560E-03 12980   0.106E-01    0.108E-01
DAV:   3    -0.608047781326E+03   -0.31976E-04   -0.13696E-03 15876   0.525E-02    0.594E-02
DAV:   4    -0.608047798818E+03   -0.17492E-04   -0.72144E-04 10328   0.342E-02    0.662E-02
DAV:   5    -0.608047784949E+03    0.13869E-04   -0.59822E-04  8840   0.286E-02    0.266E-02
DAV:   6    -0.608047766895E+03    0.18054E-04   -0.98604E-05  7768   0.202E-02    0.207E-02
DAV:   7    -0.608047841862E+03   -0.74967E-04   -0.36172E-05  7604   0.177E-02    0.174E-02
DAV:   8    -0.608047769355E+03    0.72507E-04   -0.22806E-05  7472   0.134E-02    0.658E-03
DAV:   9    -0.608047800341E+03   -0.30986E-04   -0.60289E-06  6728   0.765E-03    0.513E-03
DAV:  10    -0.608047781793E+03    0.18548E-04   -0.25906E-06  6112   0.532E-03    0.254E-03
DAV:  11    -0.608047783304E+03   -0.15110E-05   -0.12001E-06  5996   0.286E-03
  25 F= -.60804778E+03 E0= -.60804778E+03  d E =-.177973E-05
 trial-energy change:   -0.000002  1 .order   -0.000042   -0.000067   -0.000016
 step:   1.4216(harm=  1.4216)  dis= 0.00091  next Energy=  -608.047826 (dE=-0.446E-04)
 reached required accuracy - stopping structural energy minimisation
 writing wavefunctions
