       N       E                     dE             d eps       ncg     rms          rms(c)
DAV:   1     0.147230222342E+04    0.14723E+04   -0.61833E+04  3456   0.176E+03
DAV:   2     0.979713735413E+02   -0.13743E+04   -0.13214E+04  3800   0.545E+02
DAV:   3    -0.130850546889E+03   -0.22882E+03   -0.22514E+03  4488   0.208E+02
DAV:   4    -0.147096127530E+03   -0.16246E+02   -0.16162E+02  5800   0.579E+01
DAV:   5    -0.147856760007E+03   -0.76063E+00   -0.75639E+00  5576   0.932E+00    0.421E+01
DAV:   6    -0.121060867455E+03    0.26796E+02   -0.16134E+02  4848   0.661E+01    0.263E+01
DAV:   7    -0.121501540732E+03   -0.44067E+00   -0.24988E+01  4952   0.241E+01    0.171E+01
DAV:   8    -0.121621057776E+03   -0.11952E+00   -0.57458E+00  4968   0.143E+01    0.637E+00
DAV:   9    -0.121308533693E+03    0.31252E+00   -0.14071E+00  4824   0.761E+00    0.149E+00
DAV:  10    -0.121303999227E+03    0.45345E-02   -0.23582E-01  6168   0.225E+00    0.788E-01
DAV:  11    -0.121306468785E+03   -0.24696E-02   -0.27317E-02  5152   0.985E-01    0.378E-01
DAV:  12    -0.121306541584E+03   -0.72799E-04   -0.61475E-03  4832   0.510E-01    0.157E-01
DAV:  13    -0.121306521589E+03    0.19996E-04   -0.15123E-03  5272   0.181E-01    0.438E-02
DAV:  14    -0.121306553936E+03   -0.32347E-04   -0.24304E-04  5112   0.782E-02    0.267E-02
DAV:  15    -0.121306543753E+03    0.10183E-04   -0.16852E-05  2672   0.247E-02    0.140E-02
DAV:  16    -0.121306548982E+03   -0.52296E-05   -0.20399E-05  2584   0.227E-02
   1 F= -.12130655E+03 E0= -.12130655E+03  d E =-.121307E+03
       N       E                     dE             d eps       ncg     rms          rms(c)
DAV:   1    -0.123856422793E+03   -0.25499E+01   -0.13230E+02  4216   0.826E+01    0.146E+01
DAV:   2    -0.122022295377E+03    0.18341E+01   -0.17455E+01  4160   0.235E+01    0.710E+00
DAV:   3    -0.121483995592E+03    0.53830E+00   -0.38550E+00  5024   0.941E+00    0.413E+00
DAV:   4    -0.121311357552E+03    0.17264E+00   -0.11766E+00  5176   0.647E+00    0.233E+00
DAV:   5    -0.121329228380E+03   -0.17871E-01   -0.24180E-01  5552   0.219E+00    0.199E+00
DAV:   6    -0.121344078489E+03   -0.14850E-01   -0.32805E-02  6216   0.549E-01    0.147E+00
DAV:   7    -0.121356085146E+03   -0.12007E-01   -0.43781E-02  4856   0.851E-01    0.167E-01
DAV:   8    -0.121356801555E+03   -0.71641E-03   -0.10631E-02  5760   0.338E-01    0.135E-01
DAV:   9    -0.121357079444E+03   -0.27789E-03   -0.14147E-03  4776   0.147E-01    0.779E-02
DAV:  10    -0.121357067631E+03    0.11813E-04   -0.19296E-04  4808   0.555E-02    0.462E-02
DAV:  11    -0.121357081903E+03   -0.14272E-04   -0.49370E-05  3624   0.385E-02    0.127E-02
DAV:  12    -0.121357080412E+03    0.14908E-05   -0.91538E-06  2320   0.196E-02
   2 F= -.12135708E+03 E0= -.12135708E+03  d E =-.505314E-01
       N       E                     dE             d eps       ncg     rms          rms(c)
DAV:   1    -0.122062923930E+03   -0.70584E+00   -0.28573E+01  4336   0.397E+01    0.682E+00
DAV:   2    -0.121623065898E+03    0.43986E+00   -0.35566E+00  4056   0.102E+01    0.304E+00
DAV:   3    -0.121497974123E+03    0.12509E+00   -0.77462E-01  4912   0.429E+00    0.129E+00
DAV:   4    -0.121478054185E+03    0.19920E-01   -0.19277E-01  5664   0.248E+00    0.739E-01
DAV:   5    -0.121480811149E+03   -0.27570E-02   -0.30488E-02  5104   0.879E-01    0.555E-01
DAV:   6    -0.121483922908E+03   -0.31118E-02   -0.61432E-03  6288   0.234E-01    0.453E-01
DAV:   7    -0.121487521844E+03   -0.35989E-02   -0.52982E-03  4960   0.305E-01    0.942E-02
DAV:   8    -0.121487743036E+03   -0.22119E-03   -0.24580E-03  6056   0.153E-01    0.482E-02
DAV:   9    -0.121487817484E+03   -0.74449E-04   -0.31392E-04  4784   0.639E-02    0.185E-02
DAV:  10    -0.121487815007E+03    0.24776E-05   -0.51713E-05  3616   0.266E-02
   3 F= -.12148782E+03 E0= -.12148782E+03  d E =-.181266E+00
       N       E                     dE             d eps       ncg     rms          rms(c)
DAV:   1    -0.121487977252E+03   -0.15977E-03   -0.88586E-03  4320   0.700E-01    0.119E-01
DAV:   2    -0.121487864281E+03    0.11297E-03   -0.10875E-03  4144   0.185E-01    0.559E-02
DAV:   3    -0.121487816759E+03    0.47522E-04   -0.24907E-04  4856   0.769E-02    0.257E-02
DAV:   4    -0.121487819931E+03   -0.31719E-05   -0.64450E-05  4200   0.480E-02
   4 F= -.12148782E+03 E0= -.12148782E+03  d E =-.181271E+00
       N       E                     dE             d eps       ncg     rms          rms(c)
DAV:   1    -0.121471705309E+03    0.16111E-01   -0.30256E+00  4264   0.162E+01    0.111E+00
DAV:   2    -0.121497646495E+03   -0.25941E-01   -0.48815E-01  3512   0.325E+00    0.644E-01
DAV:   3    -0.121495390547E+03    0.22559E-02   -0.38140E-02  5096   0.893E-01    0.251E-01
DAV:   4    -0.121495127082E+03    0.26347E-03   -0.72322E-03  5536   0.418E-01    0.181E-01
DAV:   5    -0.121495062353E+03    0.64729E-04   -0.12499E-03  4976   0.203E-01    0.120E-01
DAV:   6    -0.121495173476E+03   -0.11112E-03   -0.32201E-04  6072   0.672E-02    0.866E-02
DAV:   7    -0.121495261043E+03   -0.87567E-04   -0.11295E-04  4664   0.572E-02    0.397E-02
DAV:   8    -0.121495285673E+03   -0.24630E-04   -0.70320E-05  4208   0.301E-02    0.984E-03
DAV:   9    -0.121495285901E+03   -0.22773E-06   -0.11447E-05  2280   0.172E-02
   5 F= -.12149529E+03 E0= -.12149529E+03  d E =-.746597E-02
       N       E                     dE             d eps       ncg     rms          rms(c)
DAV:   1    -0.121494767128E+03    0.51855E-03   -0.19393E-01  4224   0.409E+00    0.277E-01
DAV:   2    -0.121496455317E+03   -0.16882E-02   -0.31355E-02  3520   0.826E-01    0.169E-01
DAV:   3    -0.121496279667E+03    0.17565E-03   -0.24020E-03  5120   0.223E-01    0.574E-02
DAV:   4    -0.121496273649E+03    0.60171E-05   -0.38312E-04  5552   0.845E-02    0.451E-02
DAV:   5    -0.121496268076E+03    0.55737E-05   -0.59036E-05  4120   0.430E-02
   6 F= -.12149627E+03 E0= -.12149627E+03  d E =-.844815E-02
       N       E                     dE             d eps       ncg     rms          rms(c)
DAV:   1    -0.121496582974E+03   -0.30932E-03   -0.36426E-01  3496   0.296E+00    0.152E-01
DAV:   2    -0.121497342735E+03   -0.75976E-03   -0.11094E-02  3904   0.587E-01    0.156E-01
DAV:   3    -0.121497300480E+03    0.42255E-04   -0.84038E-04  5184   0.138E-01    0.106E-01
DAV:   4    -0.121497267248E+03    0.33232E-04   -0.12943E-04  4680   0.647E-02    0.701E-02
DAV:   5    -0.121497235437E+03    0.31810E-04   -0.13376E-04  5360   0.591E-02    0.205E-02
DAV:   6    -0.121497235795E+03   -0.35760E-06   -0.14743E-05  2568   0.187E-02
   7 F= -.12149724E+03 E0= -.12149724E+03  d E =-.967719E-03
       N       E                     dE             d eps       ncg     rms          rms(c)
DAV:   1    -0.121497242328E+03   -0.68903E-05   -0.11363E-02  3544   0.525E-01    0.276E-02
DAV:   2    -0.121497269190E+03   -0.26862E-04   -0.35619E-04  3968   0.104E-01    0.285E-02
DAV:   3    -0.121497264920E+03    0.42696E-05   -0.20867E-05  3000   0.252E-02
   8 F= -.12149726E+03 E0= -.12149726E+03  d E =-.996844E-03
       N       E                     dE             d eps       ncg     rms          rms(c)
DAV:   1    -0.121498004259E+03   -0.73507E-03   -0.23668E-01  3632   0.236E+00    0.231E-01
DAV:   2    -0.121498058476E+03   -0.54217E-04   -0.80460E-03  4072   0.481E-01    0.136E-01
DAV:   3    -0.121497933998E+03    0.12448E-03   -0.79072E-04  5304   0.135E-01    0.714E-02
DAV:   4    -0.121497900314E+03    0.33684E-04   -0.30012E-04  5096   0.102E-01    0.407E-02
DAV:   5    -0.121497893560E+03    0.67537E-05   -0.76281E-05  4384   0.496E-02
   9 F= -.12149789E+03 E0= -.12149789E+03  d E =-.628640E-03
       N       E                     dE             d eps       ncg     rms          rms(c)
DAV:   1    -0.121498117020E+03   -0.21671E-03   -0.30527E-01  3616   0.267E+00    0.254E-01
DAV:   2    -0.121498191552E+03   -0.74532E-04   -0.10244E-02  4008   0.539E-01    0.155E-01
DAV:   3    -0.121498041588E+03    0.14996E-03   -0.98942E-04  5256   0.147E-01    0.776E-02
DAV:   4    -0.121498018915E+03    0.22673E-04   -0.37131E-04  5552   0.108E-01    0.492E-02
DAV:   5    -0.121498012177E+03    0.67383E-05   -0.89446E-05  4432   0.547E-02
  10 F= -.12149801E+03 E0= -.12149801E+03  d E =-.747257E-03
       N       E                     dE             d eps       ncg     rms          rms(c)
DAV:   1    -0.121498048856E+03   -0.29941E-04   -0.85473E-03  3712   0.445E-01    0.502E-02
DAV:   2    -0.121498056593E+03   -0.77373E-05   -0.32123E-04  4336   0.964E-02    0.273E-02
DAV:   3    -0.121498047071E+03    0.95226E-05   -0.22831E-05  2880   0.288E-02
  11 F= -.12149805E+03 E0= -.12149805E+03  d E =-.782151E-03
       N       E                     dE             d eps       ncg     rms          rms(c)
DAV:   1    -0.121498044822E+03    0.11772E-04   -0.52579E-02  3520   0.111E+00    0.103E-01
DAV:   2    -0.121498071434E+03   -0.26612E-04   -0.17753E-03  4056   0.221E-01    0.646E-02
DAV:   3    -0.121498036448E+03    0.34987E-04   -0.15745E-04  5168   0.591E-02    0.328E-02
DAV:   4    -0.121498035793E+03    0.65409E-06   -0.58349E-05  4112   0.430E-02
  12 F= -.12149804E+03 E0= -.12149804E+03  d E =-.770873E-03
       N       E                     dE             d eps       ncg     rms          rms(c)
DAV:   1    -0.121498055718E+03   -0.19270E-04   -0.98522E-03  3704   0.477E-01    0.479E-02
DAV:   2    -0.121498058514E+03   -0.27962E-05   -0.35006E-04  4152   0.994E-02    0.270E-02
DAV:   3    -0.121498054627E+03    0.38867E-05   -0.24402E-05  3064   0.278E-02
  13 F= -.12149805E+03 E0= -.12149805E+03  d E =-.789707E-03
       N       E                     dE             d eps       ncg     rms          rms(c)
DAV:   1    -0.121498054137E+03    0.43771E-05   -0.41854E-03  3536   0.312E-01    0.282E-02
DAV:   2    -0.121498055546E+03   -0.14094E-05   -0.13824E-04  4136   0.601E-02    0.194E-02
DAV:   3    -0.121498053067E+03    0.24796E-05   -0.90503E-06  2240   0.168E-02
  14 F= -.12149805E+03 E0= -.12149805E+03  d E =-.788147E-03
       N       E                     dE             d eps       ncg     rms          rms(c)
DAV:   1    -0.121498753998E+03   -0.69845E-03   -0.99605E-02  3752   0.174E+00    0.235E-01
DAV:   2    -0.121498482229E+03    0.27177E-03   -0.54137E-03  4000   0.391E-01    0.117E-01
DAV:   3    -0.121498325542E+03    0.15669E-03   -0.85942E-04  5072   0.132E-01    0.435E-02
DAV:   4    -0.121498331198E+03   -0.56563E-05   -0.19856E-04  5456   0.681E-02    0.314E-02
DAV:   5    -0.121498325893E+03    0.53053E-05   -0.27790E-05  3120   0.357E-02
  15 F= -.12149833E+03 E0= -.12149833E+03  d E =-.272826E-03
       N       E                     dE             d eps       ncg     rms          rms(c)
DAV:   1    -0.121498546803E+03   -0.21560E-03   -0.58468E-02  3752   0.134E+00    0.175E-01
DAV:   2    -0.121498394352E+03    0.15245E-03   -0.30918E-03  3848   0.295E-01    0.902E-02
DAV:   3    -0.121498307339E+03    0.87014E-04   -0.48513E-04  5008   0.992E-02    0.332E-02
DAV:   4    -0.121498314190E+03   -0.68509E-05   -0.11872E-04  5144   0.491E-02    0.263E-02
DAV:   5    -0.121498311132E+03    0.30573E-05   -0.15233E-05  2800   0.265E-02
  16 F= -.12149831E+03 E0= -.12149831E+03  d E =-.258066E-03
       N       E                     dE             d eps       ncg     rms          rms(c)
DAV:   1    -0.121498360516E+03   -0.46326E-04   -0.56846E-03  3784   0.414E-01    0.598E-02
DAV:   2    -0.121498344677E+03    0.15839E-04   -0.32504E-04  4152   0.955E-02    0.292E-02
DAV:   3    -0.121498339194E+03    0.54828E-05   -0.45468E-05  3896   0.330E-02
  17 F= -.12149834E+03 E0= -.12149834E+03  d E =-.286128E-03
       N       E                     dE             d eps       ncg     rms          rms(c)
DAV:   1    -0.121498363108E+03   -0.18431E-04   -0.69974E-03  3680   0.461E-01    0.596E-02
DAV:   2    -0.121498347347E+03    0.15760E-04   -0.36595E-04  3872   0.991E-02    0.326E-02
DAV:   3    -0.121498340317E+03    0.70308E-05   -0.51880E-05  4176   0.347E-02
  18 F= -.12149834E+03 E0= -.12149834E+03  d E =-.287250E-03
       N       E                     dE             d eps       ncg     rms          rms(c)
DAV:   1    -0.121498340771E+03    0.65764E-05   -0.59968E-02  3968   0.127E+00    0.105E-01
DAV:   2    -0.121498480965E+03   -0.14019E-03   -0.27680E-03  3696   0.254E-01    0.694E-02
DAV:   3    -0.121498485804E+03   -0.48387E-05   -0.24154E-04  5384   0.644E-02    0.327E-02
DAV:   4    -0.121498487633E+03   -0.18295E-05   -0.37298E-05  3520   0.336E-02
  19 F= -.12149849E+03 E0= -.12149849E+03  d E =-.147316E-03
       N       E                     dE             d eps       ncg     rms          rms(c)
DAV:   1    -0.121498368408E+03    0.11740E-03   -0.60676E-02  3976   0.128E+00    0.109E-01
DAV:   2    -0.121498515592E+03   -0.14718E-03   -0.28633E-03  3728   0.257E-01    0.743E-02
DAV:   3    -0.121498521491E+03   -0.58987E-05   -0.25452E-04  5384   0.661E-02    0.359E-02
DAV:   4    -0.121498523848E+03   -0.23573E-05   -0.40994E-05  3744   0.358E-02
  20 F= -.12149852E+03 E0= -.12149852E+03  d E =-.183532E-03
       N       E                     dE             d eps       ncg     rms          rms(c)
DAV:   1    -0.121498586989E+03   -0.65498E-04   -0.62311E-02  3616   0.139E+00    0.144E-01
DAV:   2    -0.121498617935E+03   -0.30946E-04   -0.34589E-03  4160   0.326E-01    0.858E-02
DAV:   3    -0.121498557984E+03    0.59951E-04   -0.41564E-04  5368   0.984E-02    0.460E-02
DAV:   4    -0.121498539582E+03    0.18402E-04   -0.11477E-04  4416   0.637E-02    0.223E-02
DAV:   5    -0.121498536808E+03    0.27745E-05   -0.23626E-05  3144   0.289E-02
  21 F= -.12149854E+03 E0= -.12149854E+03  d E =-.129593E-04
       N       E                     dE             d eps       ncg     rms          rms(c)
DAV:   1    -0.121498577519E+03   -0.37936E-04   -0.17532E-02  3624   0.739E-01    0.769E-02
DAV:   2    -0.121498582336E+03   -0.48170E-05   -0.99356E-04  4200   0.175E-01    0.447E-02
DAV:   3    -0.121498573891E+03    0.84446E-05   -0.10984E-04  4808   0.530E-02    0.247E-02
DAV:   4    -0.121498565833E+03    0.80575E-05   -0.29426E-05  3424   0.350E-02
  22 F= -.12149857E+03 E0= -.12149857E+03  d E =-.419851E-04
