 running on  100 total cores
 distrk:  each k-point on  100 cores,    1 groups
 distr:  one band on   25 cores,    4 groups
 using from now: INCAR     
 vasp.5.4.4.18Apr17-6-g9f103f2a35 (build May 23 2017 16:08:52) complex          
  
 POSCAR found :  4 types and      75 ions
 scaLAPACK will be used

 ----------------------------------------------------------------------------- 
|                                                                             |
|           W    W    AA    RRRRR   N    N  II  N    N   GGGG   !!!           |
|           W    W   A  A   R    R  NN   N  II  NN   N  G    G  !!!           |
|           W    W  A    A  R    R  N N  N  II  N N  N  G       !!!           |
|           W WW W  AAAAAA  RRRRR   N  N N  II  N  N N  G  GGG   !            |
|           WW  WW  A    A  R   R   N   NN  II  N   NN  G    G                |
|           W    W  A    A  R    R  N    N  II  N    N   GGGG   !!!           |
|                                                                             |
|      For optimal performance we recommend to set                            |
|        NCORE= 4 - approx SQRT( number of cores)                             |
|      NCORE specifies how many cores store one orbital (NPAR=cpu/NCORE).     |
|      This setting can  greatly improve the performance of VASP for DFT.     |
|      The default,   NCORE=1            might be grossly inefficient         |
|      on modern multi-core architectures or massively parallel machines.     |
|      Do your own testing !!!!                                               |
|      Unfortunately you need to use the default for GW and RPA calculations. |
|      (for HF NCORE is supported but not extensively tested yet)             |
|                                                                             |
 ----------------------------------------------------------------------------- 


 ----------------------------------------------------------------------------- 
|                                                                             |
|  ADVICE TO THIS USER RUNNING 'VASP/VAMP'   (HEAR YOUR MASTER'S VOICE ...):  |
|                                                                             |
|      You have a (more or less) 'large supercell' and for larger cells       |
|      it might be more efficient to use real space projection opertators     |
|      So try LREAL= Auto  in the INCAR   file.                               |
|      Mind:          For very  accurate calculation you might also keep the  |
|      reciprocal projection scheme          (i.e. LREAL=.FALSE.)             |
|                                                                             |
 ----------------------------------------------------------------------------- 

 LDA part: xc-table for Pade appr. of Perdew
 POSCAR, INCAR and KPOINTS ok, starting setup
 FFT: planning ...
 WAVECAR not read
 entering main loop
       N       E                     dE             d eps       ncg     rms          rms(c)
DAV:   1     0.676084245712E+04    0.67608E+04   -0.32371E+05 11776   0.168E+03
DAV:   2     0.163695732514E+03   -0.65971E+04   -0.63211E+04 14080   0.567E+02
DAV:   3    -0.658589140353E+03   -0.82228E+03   -0.81196E+03 16824   0.186E+02
DAV:   4    -0.714175081658E+03   -0.55586E+02   -0.55006E+02 19064   0.475E+01
DAV:   5    -0.718099360705E+03   -0.39243E+01   -0.38824E+01 21320   0.108E+01    0.865E+01
DAV:   6    -0.610951078033E+03    0.10715E+03   -0.62829E+02 16648   0.509E+01    0.586E+01
DAV:   7    -0.620039836055E+03   -0.90888E+01   -0.20634E+02 17296   0.329E+01    0.403E+01
DAV:   8    -0.610215831684E+03    0.98240E+01   -0.34903E+01 17280   0.181E+01    0.212E+01
DAV:   9    -0.627699920376E+03   -0.17484E+02   -0.48268E+01 17648   0.201E+01    0.330E+01
DAV:  10    -0.616611541852E+03    0.11088E+02   -0.48397E+01 16896   0.155E+01    0.250E+01
DAV:  11    -0.610197437495E+03    0.64141E+01   -0.29925E+01 16952   0.103E+01    0.625E+00
DAV:  12    -0.609229756224E+03    0.96768E+00   -0.37017E+00 18120   0.418E+00    0.313E+00
DAV:  13    -0.609315856005E+03   -0.86100E-01   -0.13950E+00 18288   0.248E+00    0.383E+00
DAV:  14    -0.609165733279E+03    0.15012E+00   -0.90946E-01 16624   0.175E+00    0.138E+00
DAV:  15    -0.609169349608E+03   -0.36163E-02   -0.14057E-01 17616   0.891E-01    0.759E-01
DAV:  16    -0.609193874924E+03   -0.24525E-01   -0.76509E-02 17136   0.732E-01    0.868E-01
DAV:  17    -0.609163607944E+03    0.30267E-01   -0.74220E-02 16392   0.649E-01    0.473E-01
DAV:  18    -0.609161826787E+03    0.17812E-02   -0.12569E-02 17440   0.245E-01    0.383E-01
DAV:  19    -0.609166375801E+03   -0.45490E-02   -0.47814E-03 17704   0.213E-01    0.113E-01
DAV:  20    -0.609167072649E+03   -0.69685E-03   -0.17144E-03 17152   0.842E-02    0.767E-02
DAV:  21    -0.609167039601E+03    0.33049E-04   -0.32377E-04 16472   0.439E-02    0.416E-02
DAV:  22    -0.609167598865E+03   -0.55926E-03   -0.36785E-04 13760   0.225E-02    0.429E-02
DAV:  23    -0.609167354543E+03    0.24432E-03   -0.82273E-05 10360   0.178E-02    0.299E-02
DAV:  24    -0.609167039625E+03    0.31492E-03   -0.16785E-04  9296   0.160E-02    0.266E-02
DAV:  25    -0.609167112960E+03   -0.73334E-04   -0.95724E-06  7560   0.103E-02    0.185E-02
DAV:  26    -0.609167149958E+03   -0.36999E-04   -0.38676E-05  7048   0.606E-03    0.188E-02
DAV:  27    -0.609167093397E+03    0.56562E-04   -0.24843E-06  7016   0.457E-03    0.141E-02
DAV:  28    -0.609167097009E+03   -0.36120E-05   -0.63460E-06  6968   0.313E-03
   1 F= -.60916710E+03 E0= -.60916710E+03  d E =-.609167E+03
 curvature:   0.00 expect dE= 0.000E+00 dE for cont linesearch  0.000E+00
 trial: gam= 0.00000 g(F)=  0.545E+00 g(S)=  0.145E+02 ort = 0.000E+00 (trialstep = 0.100E+01)
 search vector abs. value=  0.151E+02
 bond charge predicted
       N       E                     dE             d eps       ncg     rms          rms(c)
DAV:   1    -0.708631347753E+03   -0.99464E+02   -0.32173E+03 15064   0.143E+02    0.950E+01
DAV:   2    -0.662859529652E+03    0.45772E+02   -0.79816E+02 16888   0.669E+01    0.421E+01
DAV:   3    -0.625081136829E+03    0.37778E+02   -0.21641E+02 18168   0.355E+01    0.319E+01
DAV:   4    -0.619765781486E+03    0.53154E+01   -0.82821E+01 18512   0.222E+01    0.250E+01
DAV:   5    -0.612264657291E+03    0.75011E+01   -0.55976E+01 17688   0.156E+01    0.215E+01
DAV:   6    -0.608613259418E+03    0.36514E+01   -0.17881E+01 16584   0.968E+00    0.168E+01
DAV:   7    -0.609448054900E+03   -0.83480E+00   -0.12355E+01 17768   0.733E+00    0.150E+01
DAV:   8    -0.608501007255E+03    0.94705E+00   -0.55365E+00 17656   0.509E+00    0.972E+00
DAV:   9    -0.608699779849E+03   -0.19877E+00   -0.46021E+00 18896   0.409E+00    0.615E+00
DAV:  10    -0.608321126197E+03    0.37865E+00   -0.22212E+00 17808   0.293E+00    0.355E+00
DAV:  11    -0.608215322248E+03    0.10580E+00   -0.16450E+00 17440   0.226E+00    0.274E+00
DAV:  12    -0.608142686172E+03    0.72636E-01   -0.42891E-01 16752   0.126E+00    0.143E+00
DAV:  13    -0.608140559410E+03    0.21268E-02   -0.26307E-01 17216   0.904E-01    0.130E+00
DAV:  14    -0.608141658544E+03   -0.10991E-02   -0.13840E-01 16512   0.729E-01    0.105E+00
DAV:  15    -0.608130809147E+03    0.10849E-01   -0.40563E-02 17224   0.470E-01    0.507E-01
DAV:  16    -0.608142189428E+03   -0.11380E-01   -0.28094E-02 17048   0.327E-01    0.461E-01
DAV:  17    -0.608131499069E+03    0.10690E-01   -0.11105E-02 18048   0.215E-01    0.196E-01
DAV:  18    -0.608134944170E+03   -0.34451E-02   -0.35578E-03 18392   0.126E-01    0.109E-01
DAV:  19    -0.608133652056E+03    0.12921E-02   -0.10944E-03 17120   0.609E-02    0.584E-02
DAV:  20    -0.608133601928E+03    0.50128E-04   -0.21445E-04 16480   0.372E-02    0.367E-02
DAV:  21    -0.608133290279E+03    0.31165E-03   -0.20214E-04 13984   0.316E-02    0.440E-02
DAV:  22    -0.608133458603E+03   -0.16832E-03   -0.18545E-04  9064   0.167E-02    0.206E-02
DAV:  23    -0.608133662151E+03   -0.20355E-03   -0.11939E-05  7880   0.825E-03    0.777E-03
DAV:  24    -0.608133685949E+03   -0.23797E-04   -0.41404E-06  7040   0.533E-03    0.519E-03
DAV:  25    -0.608133701252E+03   -0.15303E-04   -0.22773E-06  7016   0.407E-03    0.281E-03
DAV:  26    -0.608133717092E+03   -0.15841E-04   -0.12254E-06  6976   0.305E-03    0.207E-03
DAV:  27    -0.608133720083E+03   -0.29908E-05   -0.57228E-07  6920   0.218E-03
   2 F= -.60813372E+03 E0= -.60813372E+03  d E =0.103338E+01
 trial-energy change:    1.033377  1 .order    0.241626  -15.073757   15.557009
 step:   0.4537(harm=  0.4921)  dis= 0.02023  next Energy=  -612.512440 (dE=-0.335E+01)
 bond charge predicted
       N       E                     dE             d eps       ncg     rms          rms(c)
DAV:   1    -0.643933136405E+03   -0.35799E+02   -0.98538E+02 14696   0.777E+01    0.469E+01
DAV:   2    -0.618028768048E+03    0.25904E+02   -0.97862E+01 14000   0.225E+01    0.185E+01
DAV:   3    -0.621214213313E+03   -0.31854E+01   -0.80372E+01 16736   0.227E+01    0.153E+01
DAV:   4    -0.615898065579E+03    0.53161E+01   -0.17366E+01 18248   0.106E+01    0.114E+01
DAV:   5    -0.613775387542E+03    0.21227E+01   -0.78337E+00 17456   0.620E+00    0.805E+00
DAV:   6    -0.612242530033E+03    0.15329E+01   -0.53696E+00 18296   0.644E+00    0.479E+00
DAV:   7    -0.612285851811E+03   -0.43322E-01   -0.24181E+00 17360   0.256E+00    0.419E+00
DAV:   8    -0.612245923500E+03    0.39928E-01   -0.12287E+00 17624   0.156E+00    0.278E+00
DAV:   9    -0.612296858888E+03   -0.50935E-01   -0.15748E-01 18608   0.886E-01    0.223E+00
DAV:  10    -0.612425396479E+03   -0.12854E+00   -0.38896E-01 17896   0.125E+00    0.172E+00
DAV:  11    -0.612406568125E+03    0.18828E-01   -0.33546E-01 18664   0.977E-01    0.798E-01
DAV:  12    -0.612403954963E+03    0.26132E-02   -0.61373E-02 18952   0.476E-01    0.502E-01
DAV:  13    -0.612416309897E+03   -0.12355E-01   -0.20650E-02 19816   0.336E-01    0.400E-01
DAV:  14    -0.612410680762E+03    0.56291E-02   -0.11502E-02 16688   0.224E-01    0.200E-01
DAV:  15    -0.612405081306E+03    0.55995E-02   -0.42876E-03 17760   0.157E-01    0.171E-01
DAV:  16    -0.612408442105E+03   -0.33608E-02   -0.21883E-03 17072   0.115E-01    0.108E-01
DAV:  17    -0.612407989379E+03    0.45273E-03   -0.11255E-03 16672   0.490E-02    0.610E-02
DAV:  18    -0.612407136610E+03    0.85277E-03   -0.92293E-05 13576   0.282E-02    0.273E-02
DAV:  19    -0.612407641766E+03   -0.50516E-03   -0.74026E-05 13136   0.220E-02    0.319E-02
DAV:  20    -0.612407101542E+03    0.54022E-03   -0.39166E-05  9976   0.174E-02    0.104E-02
DAV:  21    -0.612407114037E+03   -0.12495E-04   -0.69181E-06  7056   0.797E-03    0.636E-03
DAV:  22    -0.612407075360E+03    0.38677E-04   -0.32541E-06  6928   0.514E-03    0.351E-03
DAV:  23    -0.612407099871E+03   -0.24511E-04   -0.24992E-06  6848   0.392E-03    0.994E-03
DAV:  24    -0.612407112131E+03   -0.12260E-04   -0.56533E-06  6808   0.278E-03    0.318E-03
DAV:  25    -0.612407083592E+03    0.28539E-04   -0.77285E-07  6776   0.247E-03    0.193E-03
DAV:  26    -0.612407062279E+03    0.21313E-04   -0.54417E-07  6776   0.205E-03    0.765E-04
DAV:  27    -0.612407060794E+03    0.14843E-05   -0.39040E-07  6776   0.174E-03
   3 F= -.61240706E+03 E0= -.61240706E+03  d E =-.323996E+01
 curvature:  -0.24 expect dE=-0.431E-01 dE for cont linesearch -0.170E-02
 ZBRENT: interpolating
 opt :   0.4441  next Energy=  -612.408608 (dE=-0.324E+01)
 bond charge predicted
       N       E                     dE             d eps       ncg     rms          rms(c)
DAV:   1    -0.612416049407E+03   -0.89871E-02   -0.30299E-01 15008   0.138E+00    0.782E-01
DAV:   2    -0.612419017320E+03   -0.29679E-02   -0.41681E-02 14576   0.447E-01    0.433E-01
DAV:   3    -0.612412913259E+03    0.61041E-02   -0.62933E-02 16512   0.516E-01    0.673E-01
DAV:   4    -0.612407035723E+03    0.58775E-02   -0.59494E-02 16112   0.451E-01    0.445E-01
DAV:   5    -0.612408068111E+03   -0.10324E-02   -0.11538E-02 15600   0.242E-01    0.104E-01
DAV:   6    -0.612408456169E+03   -0.38806E-03   -0.13380E-03 16720   0.681E-02    0.920E-02
DAV:   7    -0.612408324146E+03    0.13202E-03   -0.34296E-04 16520   0.393E-02    0.749E-02
DAV:   8    -0.612408578034E+03   -0.25389E-03   -0.22052E-04 15832   0.264E-02    0.559E-02
DAV:   9    -0.612408151473E+03    0.42656E-03   -0.40936E-04 15744   0.289E-02    0.416E-02
DAV:  10    -0.612408541775E+03   -0.39030E-03   -0.11280E-04 14432   0.280E-02    0.186E-02
DAV:  11    -0.612408302900E+03    0.23888E-03   -0.32192E-05  9272   0.146E-02    0.114E-02
DAV:  12    -0.612408347607E+03   -0.44707E-04   -0.93188E-06  6920   0.914E-03    0.681E-03
DAV:  13    -0.612408338908E+03    0.86993E-05   -0.36363E-06  6728   0.583E-03
   4 F= -.61240834E+03 E0= -.61240834E+03  d E =-.324124E+01
 curvature:  -0.22 expect dE=-0.362E-01 dE for cont linesearch -0.130E-04
 trial: gam= 0.01277 g(F)=  0.157E+00 g(S)=  0.567E-02 ort =-0.297E-01 (trialstep = 0.889E+00)
 search vector abs. value=  0.165E+00
 bond charge predicted
       N       E                     dE             d eps       ncg     rms          rms(c)
DAV:   1    -0.612490066430E+03   -0.81719E-01   -0.15916E+01 13000   0.752E+00    0.147E+00
DAV:   2    -0.612530919684E+03   -0.40853E-01   -0.87359E-01 13824   0.196E+00    0.152E+00
DAV:   3    -0.612554376141E+03   -0.23456E-01   -0.16280E-01 17168   0.900E-01    0.911E-01
DAV:   4    -0.612529952428E+03    0.24424E-01   -0.40152E-02 16792   0.471E-01    0.542E-01
DAV:   5    -0.612549653885E+03   -0.19701E-01   -0.57714E-02 17016   0.456E-01    0.679E-01
DAV:   6    -0.612537008238E+03    0.12646E-01   -0.39163E-02 16800   0.406E-01    0.195E-01
DAV:   7    -0.612535243420E+03    0.17648E-02   -0.47348E-03 18016   0.138E-01    0.129E-01
DAV:   8    -0.612534872529E+03    0.37089E-03   -0.14233E-03 18384   0.790E-02    0.642E-02
DAV:   9    -0.612534928739E+03   -0.56210E-04   -0.29504E-04 16912   0.453E-02    0.508E-02
DAV:  10    -0.612535018349E+03   -0.89610E-04   -0.34025E-04 14440   0.356E-02    0.358E-02
DAV:  11    -0.612535003372E+03    0.14978E-04   -0.63794E-05 10952   0.196E-02    0.198E-02
DAV:  12    -0.612534920674E+03    0.82698E-04   -0.23623E-05  8072   0.136E-02    0.174E-02
DAV:  13    -0.612534999398E+03   -0.78724E-04   -0.40726E-05  6968   0.712E-03    0.126E-02
DAV:  14    -0.612534977331E+03    0.22067E-04   -0.28172E-06  6872   0.522E-03    0.102E-02
DAV:  15    -0.612534942778E+03    0.34553E-04   -0.34045E-06  6800   0.390E-03    0.144E-02
DAV:  16    -0.612534966634E+03   -0.23856E-04   -0.19377E-05  6768   0.280E-03    0.971E-03
DAV:  17    -0.612534945807E+03    0.20827E-04   -0.55942E-07  6752   0.226E-03    0.878E-03
DAV:  18    -0.612534933374E+03    0.12433E-04   -0.43152E-06  6736   0.165E-03    0.148E-02
DAV:  19    -0.612534953886E+03   -0.20511E-04   -0.12388E-05  6680   0.150E-03    0.857E-03
DAV:  20    -0.612534936992E+03    0.16894E-04   -0.31141E-06  6664   0.128E-03    0.146E-02
DAV:  21    -0.612534955098E+03   -0.18106E-04   -0.13975E-05  6616   0.110E-03    0.870E-03
DAV:  22    -0.612534938757E+03    0.16341E-04   -0.12250E-06  6592   0.956E-04    0.144E-02
DAV:  23    -0.612534960544E+03   -0.21787E-04   -0.15357E-05  6544   0.845E-04    0.890E-03
DAV:  24    -0.612534939680E+03    0.20864E-04   -0.83484E-08  6528   0.761E-04    0.845E-03
DAV:  25    -0.612534939826E+03   -0.14663E-06   -0.34332E-08  6488   0.524E-04
   5 F= -.61253494E+03 E0= -.61253494E+03  d E =-.126601E+00
 trial-energy change:   -0.126601  1 .order   -0.113677   -0.144378   -0.082977
 step:   1.3089(harm=  2.0900)  dis= 0.04556  next Energy=  -612.555910 (dE=-0.148E+00)
 bond charge predicted
       N       E                     dE             d eps       ncg     rms          rms(c)
DAV:   1    -0.612566208201E+03   -0.31269E-01   -0.35415E+00 12992   0.356E+00    0.699E-01
DAV:   2    -0.612566378850E+03   -0.17065E-03   -0.20016E-01 13824   0.942E-01    0.803E-01
DAV:   3    -0.612580243905E+03   -0.13865E-01   -0.41701E-02 16488   0.450E-01    0.432E-01
DAV:   4    -0.612573210092E+03    0.70338E-02   -0.16045E-02 16224   0.268E-01    0.362E-01
DAV:   5    -0.612573237043E+03   -0.26951E-04   -0.23217E-02 16480   0.286E-01    0.373E-01
DAV:   6    -0.612574363438E+03   -0.11264E-02   -0.12051E-02 17296   0.185E-01    0.985E-02
DAV:   7    -0.612573500386E+03    0.86305E-03   -0.10673E-03 18392   0.721E-02    0.690E-02
DAV:   8    -0.612573341371E+03    0.15902E-03   -0.33802E-04 17712   0.353E-02    0.412E-02
DAV:   9    -0.612573237403E+03    0.10397E-03   -0.10410E-04 13288   0.261E-02    0.341E-02
DAV:  10    -0.612573239107E+03   -0.17037E-05   -0.43414E-05 10480   0.200E-02
   6 F= -.61257324E+03 E0= -.61257324E+03  d E =-.164900E+00
 curvature:  -0.61 expect dE=-0.498E-01 dE for cont linesearch -0.136E-01
 ZBRENT: increasing intervall
 opt :   2.1489  next Energy=  -612.596682 (dE=-0.188E+00)
 bond charge predicted
       N       E                     dE             d eps       ncg     rms          rms(c)
DAV:   1    -0.612570358462E+03    0.28789E-02   -0.14151E+01 13112   0.715E+00    0.143E+00
DAV:   2    -0.612609409674E+03   -0.39051E-01   -0.84518E-01 14048   0.193E+00    0.175E+00
DAV:   3    -0.612621519264E+03   -0.12110E-01   -0.17194E-01 16496   0.948E-01    0.854E-01
DAV:   4    -0.612604436642E+03    0.17083E-01   -0.42073E-02 17440   0.437E-01    0.556E-01
DAV:   5    -0.612627962180E+03   -0.23526E-01   -0.10572E-01 17008   0.564E-01    0.936E-01
DAV:   6    -0.612610316318E+03    0.17646E-01   -0.84122E-02 16752   0.503E-01    0.283E-01
DAV:   7    -0.612608589330E+03    0.17270E-02   -0.66360E-03 18776   0.149E-01    0.143E-01
DAV:   8    -0.612607690308E+03    0.89902E-03   -0.15177E-03 17416   0.894E-02    0.893E-02
DAV:   9    -0.612607563884E+03    0.12642E-03   -0.77504E-04 16176   0.591E-02    0.513E-02
DAV:  10    -0.612608000600E+03   -0.43672E-03   -0.26887E-04 14704   0.322E-02    0.317E-02
DAV:  11    -0.612607852082E+03    0.14852E-03   -0.13990E-04 13000   0.244E-02    0.217E-02
DAV:  12    -0.612607971727E+03   -0.11964E-03   -0.36854E-05  8296   0.143E-02    0.941E-03
DAV:  13    -0.612607865561E+03    0.10617E-03   -0.74256E-06  7024   0.925E-03    0.583E-03
DAV:  14    -0.612607913322E+03   -0.47761E-04   -0.30549E-06  6848   0.524E-03    0.335E-03
DAV:  15    -0.612607889308E+03    0.24014E-04   -0.15231E-06  6808   0.373E-03    0.241E-03
DAV:  16    -0.612607878814E+03    0.10494E-04   -0.83661E-07  6800   0.262E-03    0.143E-03
DAV:  17    -0.612607887849E+03   -0.90344E-05   -0.54073E-07  6776   0.208E-03
   7 F= -.61260789E+03 E0= -.61260789E+03  d E =-.199549E+00
 curvature:  -1.05 expect dE=-0.167E+00 dE for cont linesearch -0.181E-03
 trial: gam= 1.01899 g(F)=  0.158E+00 g(S)=  0.176E-02 ort =-0.533E-02 (trialstep = 0.588E+00)
 search vector abs. value=  0.319E+00
 bond charge predicted
       N       E                     dE             d eps       ncg     rms          rms(c)
DAV:   1    -0.612643360674E+03   -0.35482E-01   -0.14994E+01 12248   0.724E+00    0.127E+00
DAV:   2    -0.612676179981E+03   -0.32819E-01   -0.67567E-01 14000   0.182E+00    0.154E+00
DAV:   3    -0.612696666242E+03   -0.20486E-01   -0.23813E-01 16440   0.997E-01    0.111E+00
DAV:   4    -0.612693500400E+03    0.31658E-02   -0.18868E-01 16136   0.758E-01    0.113E+00
DAV:   5    -0.612669002239E+03    0.24498E-01   -0.15891E-01 15832   0.503E-01    0.566E-01
DAV:   6    -0.612677168466E+03   -0.81662E-02   -0.16718E-02 19216   0.322E-01    0.380E-01
DAV:   7    -0.612675232811E+03    0.19357E-02   -0.10707E-02 16496   0.225E-01    0.179E-01
DAV:   8    -0.612673988103E+03    0.12447E-02   -0.41385E-03 18336   0.990E-02    0.893E-02
DAV:   9    -0.612674468819E+03   -0.48072E-03   -0.72081E-04 17312   0.602E-02    0.593E-02
DAV:  10    -0.612674623530E+03   -0.15471E-03   -0.15785E-04 14656   0.348E-02    0.393E-02
DAV:  11    -0.612674783881E+03   -0.16035E-03   -0.13276E-04 12992   0.247E-02    0.334E-02
DAV:  12    -0.612674718533E+03    0.65348E-04   -0.11555E-04 11968   0.216E-02    0.179E-02
DAV:  13    -0.612674755739E+03   -0.37206E-04   -0.20603E-05  7056   0.107E-02    0.111E-02
DAV:  14    -0.612674772012E+03   -0.16273E-04   -0.43580E-06  6944   0.688E-03    0.644E-03
DAV:  15    -0.612674781047E+03   -0.90343E-05   -0.23821E-06  6848   0.418E-03
   8 F= -.61267478E+03 E0= -.61267478E+03  d E =-.668932E-01
 trial-energy change:   -0.066893  1 .order   -0.071411   -0.090494   -0.052328
 step:   1.3934(harm=  1.3934)  dis= 0.06044  next Energy=  -612.715173 (dE=-0.107E+00)
 bond charge predicted
       N       E                     dE             d eps       ncg     rms          rms(c)
DAV:   1    -0.612640859412E+03    0.33913E-01   -0.28203E+01 12272   0.992E+00    0.178E+00
DAV:   2    -0.612726454231E+03   -0.85595E-01   -0.12752E+00 13960   0.256E+00    0.218E+00
DAV:   3    -0.612735012425E+03   -0.85582E-02   -0.46724E-01 16400   0.142E+00    0.143E+00
DAV:   4    -0.612729526540E+03    0.54859E-02   -0.32574E-01 16320   0.101E+00    0.135E+00
DAV:   5    -0.612699089451E+03    0.30437E-01   -0.13428E-01 16152   0.645E-01    0.734E-01
DAV:   6    -0.612709735412E+03   -0.10646E-01   -0.31242E-02 18392   0.417E-01    0.445E-01
DAV:   7    -0.612705665757E+03    0.40697E-02   -0.19027E-02 16384   0.300E-01    0.201E-01
DAV:   8    -0.612703713766E+03    0.19520E-02   -0.33596E-03 18104   0.127E-01    0.846E-02
DAV:   9    -0.612703725593E+03   -0.11827E-04   -0.73866E-04 16392   0.705E-02    0.603E-02
DAV:  10    -0.612703679007E+03    0.46586E-04   -0.16422E-04 15928   0.349E-02    0.343E-02
DAV:  11    -0.612703493918E+03    0.18509E-03   -0.99211E-05 13752   0.239E-02    0.275E-02
DAV:  12    -0.612703467296E+03    0.26622E-04   -0.69139E-05 11368   0.200E-02    0.151E-02
DAV:  13    -0.612703503658E+03   -0.36362E-04   -0.99400E-06  7408   0.997E-03    0.642E-03
DAV:  14    -0.612703495715E+03    0.79428E-05   -0.41002E-06  6944   0.619E-03
   9 F= -.61270350E+03 E0= -.61270350E+03  d E =-.956079E-01
 curvature:  -1.44 expect dE=-0.565E-01 dE for cont linesearch -0.856E-06
 trial: gam= 0.16769 g(F)=  0.379E-01 g(S)=  0.117E-02 ort = 0.435E-03 (trialstep = 0.749E+00)
 search vector abs. value=  0.482E-01
 bond charge predicted
       N       E                     dE             d eps       ncg     rms          rms(c)
DAV:   1    -0.612687192788E+03    0.16311E-01   -0.44127E+00 13528   0.562E+00    0.584E-01
DAV:   2    -0.612722600904E+03   -0.35408E-01   -0.45310E-01 13056   0.136E+00    0.461E-01
DAV:   3    -0.612728223842E+03   -0.56229E-02   -0.58189E-02 18288   0.477E-01    0.388E-01
DAV:   4    -0.612726085426E+03    0.21384E-02   -0.20297E-02 16312   0.298E-01    0.326E-01
DAV:   5    -0.612722310663E+03    0.37748E-02   -0.10609E-02 16904   0.215E-01    0.254E-01
DAV:   6    -0.612725616695E+03   -0.33060E-02   -0.50148E-03 17264   0.153E-01    0.145E-01
DAV:   7    -0.612722944068E+03    0.26726E-02   -0.14037E-03 16872   0.930E-02    0.626E-02
DAV:   8    -0.612724108877E+03   -0.11648E-02   -0.53008E-04 17232   0.470E-02    0.591E-02
DAV:   9    -0.612723421191E+03    0.68769E-03   -0.57124E-04 15000   0.348E-02    0.340E-02
DAV:  10    -0.612723408429E+03    0.12762E-04   -0.55768E-05 11288   0.200E-02    0.231E-02
DAV:  11    -0.612723611002E+03   -0.20257E-03   -0.31812E-05  8616   0.142E-02    0.151E-02
DAV:  12    -0.612723522669E+03    0.88332E-04   -0.86554E-05  7280   0.115E-02    0.388E-02
DAV:  13    -0.612723575420E+03   -0.52751E-04   -0.11620E-04  6944   0.974E-03    0.101E-02
DAV:  14    -0.612723563812E+03    0.11608E-04   -0.27995E-06  6752   0.509E-03    0.844E-03
DAV:  15    -0.612723563053E+03    0.75911E-06   -0.10663E-06  6736   0.319E-03
  10 F= -.61272356E+03 E0= -.61272356E+03  d E =-.200673E-01
 trial-energy change:   -0.020067  1 .order   -0.018589   -0.029319   -0.007859
 step:   0.9300(harm=  1.0230)  dis= 0.01592  next Energy=  -612.724535 (dE=-0.210E-01)
 bond charge predicted
       N       E                     dE             d eps       ncg     rms          rms(c)
DAV:   1    -0.612723083119E+03    0.48069E-03   -0.25814E-01 13560   0.136E+00    0.143E-01
DAV:   2    -0.612724335962E+03   -0.12528E-02   -0.26777E-02 13032   0.334E-01    0.131E-01
DAV:   3    -0.612725943893E+03   -0.16079E-02   -0.50124E-03 18656   0.119E-01    0.114E-01
DAV:   4    -0.612725623692E+03    0.32020E-03   -0.19393E-03 16008   0.741E-02    0.954E-02
DAV:   5    -0.612724683057E+03    0.94064E-03   -0.13981E-03 14968   0.543E-02    0.732E-02
DAV:   6    -0.612725286106E+03   -0.60305E-03   -0.52077E-04 15240   0.410E-02    0.462E-02
DAV:   7    -0.612725152224E+03    0.13388E-03   -0.13383E-04 13864   0.301E-02    0.174E-02
DAV:   8    -0.612725172431E+03   -0.20206E-04   -0.37658E-05  8640   0.151E-02    0.132E-02
DAV:   9    -0.612725080901E+03    0.91530E-04   -0.17243E-05  7160   0.123E-02    0.801E-03
DAV:  10    -0.612725174162E+03   -0.93261E-04   -0.11491E-05  6848   0.767E-03    0.722E-03
DAV:  11    -0.612725124933E+03    0.49229E-04   -0.27813E-06  6720   0.563E-03    0.372E-03
DAV:  12    -0.612725137188E+03   -0.12255E-04   -0.37343E-06  6648   0.341E-03    0.411E-03
DAV:  13    -0.612725141292E+03   -0.41045E-05   -0.88048E-07  6528   0.317E-03
  11 F= -.61272514E+03 E0= -.61272514E+03  d E =-.216456E-01
 curvature:  -0.56 expect dE=-0.243E-02 dE for cont linesearch -0.142E-03
 ZBRENT: increasing intervall
 opt :   1.2924  next Energy=  -612.723874 (dE=-0.204E-01)
 bond charge predicted
       N       E                     dE             d eps       ncg     rms          rms(c)
DAV:   1    -0.612716156761E+03    0.89804E-02   -0.10330E+00 13496   0.273E+00    0.287E-01
DAV:   2    -0.612723584597E+03   -0.74278E-02   -0.10821E-01 13040   0.670E-01    0.259E-01
DAV:   3    -0.612726351155E+03   -0.27666E-02   -0.17340E-02 18248   0.244E-01    0.199E-01
DAV:   4    -0.612725390888E+03    0.96027E-03   -0.49929E-03 16432   0.152E-01    0.176E-01
DAV:   5    -0.612724016971E+03    0.13739E-02   -0.40052E-03 16024   0.110E-01    0.119E-01
DAV:   6    -0.612725230504E+03   -0.12135E-02   -0.99004E-04 17168   0.748E-02    0.726E-02
DAV:   7    -0.612724212416E+03    0.10181E-02   -0.37411E-04 16448   0.517E-02    0.318E-02
DAV:   8    -0.612724647524E+03   -0.43511E-03   -0.24818E-04 13960   0.257E-02    0.290E-02
DAV:   9    -0.612724395913E+03    0.25161E-03   -0.47278E-05 11408   0.197E-02    0.151E-02
DAV:  10    -0.612724433066E+03   -0.37153E-04   -0.12917E-05  7104   0.999E-03    0.959E-03
DAV:  11    -0.612724469940E+03   -0.36874E-04   -0.28055E-05  6960   0.802E-03    0.196E-02
DAV:  12    -0.612724426587E+03    0.43353E-04   -0.35963E-05  6872   0.673E-03    0.791E-03
DAV:  13    -0.612724447672E+03   -0.21085E-04   -0.20991E-06  6760   0.456E-03    0.628E-03
DAV:  14    -0.612724421131E+03    0.26541E-04   -0.13009E-06  6648   0.304E-03    0.225E-03
DAV:  15    -0.612724426392E+03   -0.52612E-05   -0.65570E-07  6584   0.200E-03
  12 F= -.61272443E+03 E0= -.61272443E+03  d E =-.209307E-01
 curvature:   4.99 expect dE= 0.509E-01 dE for cont linesearch  0.107E-01
 ZBRENT: bracketing found
 ZBRENT: interpolating
 opt :   1.0229  next Energy=  -612.725304 (dE=-0.218E-01)
 bond charge predicted
       N       E                     dE             d eps       ncg     rms          rms(c)
DAV:   1    -0.612720351253E+03    0.40699E-02   -0.57098E-01 13512   0.203E+00    0.215E-01
DAV:   2    -0.612727161239E+03   -0.68100E-02   -0.59633E-02 13024   0.500E-01    0.205E-01
DAV:   3    -0.612724583505E+03    0.25777E-02   -0.83075E-03 18912   0.185E-01    0.190E-01
DAV:   4    -0.612726367322E+03   -0.17838E-02   -0.50959E-03 16680   0.122E-01    0.152E-01
DAV:   5    -0.612725689143E+03    0.67818E-03   -0.24155E-03 15744   0.835E-02    0.796E-02
DAV:   6    -0.612725802679E+03   -0.11354E-03   -0.12132E-03 17344   0.598E-02    0.938E-02
DAV:   7    -0.612725338214E+03    0.46446E-03   -0.80125E-04 16168   0.454E-02    0.243E-02
DAV:   8    -0.612725492635E+03   -0.15442E-03   -0.64320E-05 12112   0.217E-02    0.163E-02
DAV:   9    -0.612725377990E+03    0.11464E-03   -0.30917E-05  8024   0.151E-02    0.102E-02
DAV:  10    -0.612725427661E+03   -0.49671E-04   -0.10020E-05  6960   0.950E-03    0.727E-03
DAV:  11    -0.612725409855E+03    0.17805E-04   -0.32318E-06  6792   0.645E-03    0.376E-03
DAV:  12    -0.612725436107E+03   -0.26251E-04   -0.19533E-06  6736   0.407E-03    0.290E-03
DAV:  13    -0.612725418173E+03    0.17934E-04   -0.11639E-06  6624   0.357E-03    0.167E-03
DAV:  14    -0.612725426508E+03   -0.83347E-05   -0.58424E-07  6488   0.213E-03
  13 F= -.61272543E+03 E0= -.61272543E+03  d E =-.219308E-01
 curvature:  -0.08 expect dE=-0.367E-03 dE for cont linesearch -0.198E-10
 trial: gam= 0.12023 g(F)=  0.466E-02 g(S)=  0.164E-03 ort = 0.355E-05 (trialstep = 0.804E+00)
 search vector abs. value=  0.552E-02
 bond charge predicted
       N       E                     dE             d eps       ncg     rms          rms(c)
DAV:   1    -0.612725990159E+03   -0.57199E-03   -0.72602E-01 12456   0.190E+00    0.257E-01
DAV:   2    -0.612728358861E+03   -0.23687E-02   -0.35065E-02 13848   0.429E-01    0.179E-01
DAV:   3    -0.612730087476E+03   -0.17286E-02   -0.13241E-02 18008   0.185E-01    0.221E-01
DAV:   4    -0.612728558870E+03    0.15286E-02   -0.40106E-03 16424   0.148E-01    0.141E-01
DAV:   5    -0.612727576468E+03    0.98240E-03   -0.10005E-03 18320   0.751E-02    0.983E-02
DAV:   6    -0.612728711947E+03   -0.11355E-02   -0.69503E-04 17472   0.513E-02    0.571E-02
DAV:   7    -0.612727380270E+03    0.13317E-02   -0.21343E-04 15752   0.371E-02    0.349E-02
DAV:   8    -0.612727871483E+03   -0.49121E-03   -0.50644E-05 10896   0.183E-02    0.193E-02
DAV:   9    -0.612727685156E+03    0.18633E-03   -0.29944E-05  7952   0.124E-02    0.247E-02
DAV:  10    -0.612727870811E+03   -0.18566E-03   -0.83731E-05  7360   0.116E-02    0.128E-02
DAV:  11    -0.612727807302E+03    0.63509E-04   -0.74760E-06  6960   0.857E-03    0.827E-03
DAV:  12    -0.612727833941E+03   -0.26639E-04   -0.47311E-06  6800   0.591E-03    0.591E-03
DAV:  13    -0.612727819795E+03    0.14146E-04   -0.22679E-06  6704   0.434E-03    0.375E-03
DAV:  14    -0.612727811216E+03    0.85788E-05   -0.15004E-06  6616   0.290E-03
  14 F= -.61272781E+03 E0= -.61272781E+03  d E =-.238471E-02
 trial-energy change:   -0.002385  1 .order   -0.002611   -0.003880   -0.001342
 step:   1.2284(harm=  1.2284)  dis= 0.00461  next Energy=  -612.728392 (dE=-0.297E-02)
 bond charge predicted
       N       E                     dE             d eps       ncg     rms          rms(c)
DAV:   1    -0.612727735093E+03    0.84701E-04   -0.20279E-01 12480   0.100E+00    0.135E-01
DAV:   2    -0.612728229297E+03   -0.49420E-03   -0.95571E-03 13832   0.226E-01    0.835E-02
DAV:   3    -0.612728463744E+03   -0.23445E-03   -0.78282E-04 19456   0.601E-02    0.789E-02
DAV:   4    -0.612728209766E+03    0.25398E-03   -0.69121E-04 15136   0.540E-02    0.671E-02
DAV:   5    -0.612728127972E+03    0.81794E-04   -0.41515E-04 15744   0.520E-02    0.527E-02
DAV:   6    -0.612728426440E+03   -0.29847E-03   -0.62603E-04 14832   0.361E-02    0.258E-02
DAV:   7    -0.612728162334E+03    0.26411E-03   -0.39209E-05 10192   0.173E-02    0.162E-02
DAV:   8    -0.612728258349E+03   -0.96015E-04   -0.80619E-06  6952   0.903E-03    0.120E-02
DAV:   9    -0.612728085750E+03    0.17260E-03   -0.57539E-06  6992   0.719E-03    0.104E-02
DAV:  10    -0.612728232477E+03   -0.14673E-03   -0.60720E-06  7008   0.758E-03    0.426E-03
DAV:  11    -0.612728166785E+03    0.65691E-04   -0.24480E-06  6640   0.471E-03    0.241E-03
DAV:  12    -0.612728167748E+03   -0.96274E-06   -0.13416E-06  6496   0.322E-03
  15 F= -.61272817E+03 E0= -.61272817E+03  d E =-.274124E-02
 curvature:  -0.70 expect dE=-0.136E-02 dE for cont linesearch -0.692E-08
 trial: gam= 0.40166 g(F)=  0.173E-02 g(S)=  0.202E-03 ort =-0.738E-05 (trialstep = 0.889E+00)
 search vector abs. value=  0.282E-02
 bond charge predicted
       N       E                     dE             d eps       ncg     rms          rms(c)
DAV:   1    -0.612728173733E+03   -0.69477E-05   -0.36538E-01 13008   0.140E+00    0.231E-01
DAV:   2    -0.612732219720E+03   -0.40460E-02   -0.24778E-02 13488   0.352E-01    0.198E-01
DAV:   3    -0.612730647639E+03    0.15721E-02   -0.10977E-02 17184   0.201E-01    0.227E-01
DAV:   4    -0.612728663013E+03    0.19846E-02   -0.57342E-03 17288   0.139E-01    0.136E-01
DAV:   5    -0.612730804327E+03   -0.21413E-02   -0.13485E-03 17504   0.723E-02    0.926E-02
DAV:   6    -0.612729293144E+03    0.15112E-02   -0.48592E-04 17344   0.523E-02    0.477E-02
DAV:   7    -0.612729232663E+03    0.60481E-04   -0.28167E-04 14800   0.292E-02    0.301E-02
DAV:   8    -0.612729509772E+03   -0.27711E-03   -0.42433E-05  9784   0.158E-02    0.262E-02
DAV:   9    -0.612729415308E+03    0.94463E-04   -0.82611E-05  7736   0.112E-02    0.176E-02
DAV:  10    -0.612729397938E+03    0.17370E-04   -0.11135E-05  6928   0.884E-03    0.918E-03
DAV:  11    -0.612729376552E+03    0.21386E-04   -0.78306E-06  6856   0.840E-03    0.998E-03
DAV:  12    -0.612729417105E+03   -0.40553E-04   -0.14946E-05  6624   0.526E-03    0.615E-03
DAV:  13    -0.612729397790E+03    0.19315E-04   -0.17591E-06  6560   0.378E-03    0.519E-03
DAV:  14    -0.612729394497E+03    0.32930E-05   -0.11646E-06  6440   0.295E-03
  16 F= -.61272939E+03 E0= -.61272939E+03  d E =-.122675E-02
 trial-energy change:   -0.001227  1 .order   -0.001270   -0.001718   -0.000823
 step:   1.7053(harm=  1.7053)  dis= 0.00643  next Energy=  -612.729816 (dE=-0.165E-02)
 bond charge predicted
       N       E                     dE             d eps       ncg     rms          rms(c)
DAV:   1    -0.612728916101E+03    0.48169E-03   -0.30939E-01 12952   0.128E+00    0.221E-01
DAV:   2    -0.612734270755E+03   -0.53547E-02   -0.31299E-02 13904   0.364E-01    0.277E-01
DAV:   3    -0.612731066706E+03    0.32040E-02   -0.11862E-02 15520   0.240E-01    0.204E-01
DAV:   4    -0.612728967171E+03    0.20995E-02   -0.35704E-03 18080   0.123E-01    0.144E-01
DAV:   5    -0.612730776600E+03   -0.18094E-02   -0.11437E-03 16816   0.655E-02    0.754E-02
DAV:   6    -0.612729113830E+03    0.16628E-02   -0.43742E-04 16872   0.476E-02    0.570E-02
DAV:   7    -0.612730016199E+03   -0.90237E-03   -0.16965E-04 14600   0.314E-02    0.283E-02
DAV:   8    -0.612729724139E+03    0.29206E-03   -0.40795E-05  9144   0.148E-02    0.175E-02
DAV:   9    -0.612729976061E+03   -0.25192E-03   -0.35197E-05  8632   0.128E-02    0.191E-02
DAV:  10    -0.612729814215E+03    0.16185E-03   -0.14371E-05  7272   0.104E-02    0.868E-03
DAV:  11    -0.612729790419E+03    0.23796E-04   -0.60288E-06  6760   0.621E-03    0.494E-03
DAV:  12    -0.612729800825E+03   -0.10406E-04   -0.33931E-06  6664   0.537E-03    0.348E-03
DAV:  13    -0.612729796180E+03    0.46454E-05   -0.53012E-06  6592   0.372E-03
  17 F= -.61272980E+03 E0= -.61272980E+03  d E =-.162843E-02
 curvature:  -1.24 expect dE=-0.206E-02 dE for cont linesearch -0.109E-06
 trial: gam= 0.86041 g(F)=  0.119E-02 g(S)=  0.463E-03 ort =-0.157E-04 (trialstep = 0.798E+00)
 search vector abs. value=  0.372E-02
 bond charge predicted
       N       E                     dE             d eps       ncg     rms          rms(c)
DAV:   1    -0.612730954591E+03   -0.11538E-02   -0.39129E-01 12392   0.128E+00    0.264E-01
DAV:   2    -0.612731514106E+03   -0.55951E-03   -0.27561E-02 13872   0.349E-01    0.310E-01
DAV:   3    -0.612732373499E+03   -0.85939E-03   -0.17290E-02 15992   0.262E-01    0.241E-01
DAV:   4    -0.612731569340E+03    0.80416E-03   -0.42220E-03 16728   0.140E-01    0.141E-01
DAV:   5    -0.612730591082E+03    0.97826E-03   -0.30028E-03 16768   0.820E-02    0.104E-01
DAV:   6    -0.612729960132E+03    0.63095E-03   -0.19035E-03 16832   0.704E-02    0.103E-01
DAV:   7    -0.612730844157E+03   -0.88402E-03   -0.43306E-04 16400   0.497E-02    0.350E-02
DAV:   8    -0.612730434613E+03    0.40954E-03   -0.13491E-04 11656   0.198E-02    0.447E-02
DAV:   9    -0.612730492914E+03   -0.58301E-04   -0.18026E-04  7752   0.141E-02    0.255E-02
DAV:  10    -0.612730708465E+03   -0.21555E-03   -0.78691E-05  7320   0.122E-02    0.374E-02
DAV:  11    -0.612730500797E+03    0.20767E-03   -0.87973E-05  6944   0.112E-02    0.114E-02
DAV:  12    -0.612730600181E+03   -0.99384E-04   -0.15925E-05  6816   0.706E-03    0.116E-02
DAV:  13    -0.612730577505E+03    0.22676E-04   -0.30900E-06  6584   0.551E-03    0.919E-03
DAV:  14    -0.612730569853E+03    0.76519E-05   -0.48529E-06  6520   0.354E-03
  18 F= -.61273057E+03 E0= -.61273057E+03  d E =-.773673E-03
 trial-energy change:   -0.000774  1 .order   -0.000932   -0.001311   -0.000552
 step:   1.3781(harm=  1.3781)  dis= 0.00625  next Energy=  -612.730928 (dE=-0.113E-02)
 bond charge predicted
       N       E                     dE             d eps       ncg     rms          rms(c)
DAV:   1    -0.612730968721E+03   -0.39122E-03   -0.20638E-01 12392   0.933E-01    0.191E-01
DAV:   2    -0.612731132604E+03   -0.16388E-03   -0.15883E-02 13856   0.254E-01    0.231E-01
DAV:   3    -0.612731741410E+03   -0.60881E-03   -0.10185E-02 15960   0.191E-01    0.170E-01
DAV:   4    -0.612731337001E+03    0.40441E-03   -0.21664E-03 16880   0.102E-01    0.107E-01
DAV:   5    -0.612730585990E+03    0.75101E-03   -0.12689E-03 16824   0.610E-02    0.831E-02
DAV:   6    -0.612730060034E+03    0.52596E-03   -0.17163E-03 16072   0.512E-02    0.823E-02
DAV:   7    -0.612730901888E+03   -0.84185E-03   -0.17269E-04 14808   0.375E-02    0.390E-02
DAV:   8    -0.612730510885E+03    0.39100E-03   -0.36140E-05  9496   0.156E-02    0.311E-02
DAV:   9    -0.612730610580E+03   -0.99695E-04   -0.13063E-05  7152   0.108E-02    0.251E-02
DAV:  10    -0.612730548567E+03    0.62013E-04   -0.17374E-04  7160   0.931E-03    0.480E-02
DAV:  11    -0.612730614628E+03   -0.66061E-04   -0.33900E-05  6920   0.872E-03    0.219E-02
DAV:  12    -0.612730578052E+03    0.36576E-04   -0.50047E-05  6640   0.676E-03    0.209E-02
DAV:  13    -0.612730591045E+03   -0.12993E-04   -0.23516E-05  6496   0.489E-03    0.203E-02
DAV:  14    -0.612730609816E+03   -0.18771E-04   -0.33062E-05  6384   0.390E-03    0.196E-02
DAV:  15    -0.612730592473E+03    0.17343E-04   -0.75069E-06  6368   0.316E-03    0.146E-02
DAV:  16    -0.612730603575E+03   -0.11101E-04   -0.13476E-05  6368   0.246E-03    0.181E-02
DAV:  17    -0.612730592904E+03    0.10671E-04   -0.13019E-05  6352   0.224E-03    0.190E-02
DAV:  18    -0.612730604151E+03   -0.11247E-04   -0.19900E-05  6312   0.194E-03    0.186E-02
DAV:  19    -0.612730601553E+03    0.25977E-05   -0.29615E-06  6296   0.162E-03
  19 F= -.61273060E+03 E0= -.61273060E+03  d E =-.805373E-03
 curvature:  -1.56 expect dE=-0.115E-02 dE for cont linesearch -0.874E-07
 trial: gam= 0.48031 g(F)=  0.396E-03 g(S)=  0.340E-03 ort =-0.144E-04 (trialstep = 0.914E+00)
 search vector abs. value=  0.158E-02
 bond charge predicted
       N       E                     dE             d eps       ncg     rms          rms(c)
DAV:   1    -0.612730112206E+03    0.49194E-03   -0.23483E-01 13000   0.106E+00    0.252E-01
DAV:   2    -0.612732615265E+03   -0.25031E-02   -0.14770E-02 13608   0.268E-01    0.199E-01
DAV:   3    -0.612732458173E+03    0.15709E-03   -0.15414E-02 17216   0.210E-01    0.240E-01
DAV:   4    -0.612729412911E+03    0.30453E-02   -0.54432E-03 17224   0.164E-01    0.164E-01
DAV:   5    -0.612730968624E+03   -0.15557E-02   -0.15100E-03 17064   0.838E-02    0.585E-02
DAV:   6    -0.612730423339E+03    0.54528E-03   -0.29730E-04 17768   0.376E-02    0.410E-02
DAV:   7    -0.612730701982E+03   -0.27864E-03   -0.90909E-05 14144   0.274E-02    0.267E-02
DAV:   8    -0.612730635984E+03    0.65997E-04   -0.27708E-05  8808   0.129E-02    0.176E-02
DAV:   9    -0.612730743614E+03   -0.10763E-03   -0.22534E-05  7600   0.130E-02    0.151E-02
DAV:  10    -0.612730613782E+03    0.12983E-03   -0.13502E-05  7104   0.108E-02    0.649E-03
DAV:  11    -0.612730700769E+03   -0.86987E-04   -0.58438E-06  6864   0.724E-03    0.580E-03
DAV:  12    -0.612730658816E+03    0.41953E-04   -0.31461E-06  6760   0.525E-03    0.354E-03
DAV:  13    -0.612730650269E+03    0.85473E-05   -0.18449E-06  6672   0.353E-03
  20 F= -.61273065E+03 E0= -.61273065E+03  d E =-.487155E-04
 trial-energy change:   -0.000049  1 .order   -0.000352   -0.000667   -0.000037
 step:   0.9682(harm=  0.9682)  dis= 0.00241  next Energy=  -612.730955 (dE=-0.353E-03)
 bond charge predicted
       N       E                     dE             d eps       ncg     rms          rms(c)
DAV:   1    -0.612730609393E+03    0.49423E-04   -0.81307E-04 12728   0.624E-02    0.141E-02
DAV:   2    -0.612730672658E+03   -0.63265E-04   -0.39234E-05 10768   0.154E-02    0.887E-03
DAV:   3    -0.612730605153E+03    0.67505E-04   -0.16503E-05  6928   0.101E-02    0.102E-02
DAV:   4    -0.612730587748E+03    0.17405E-04   -0.13292E-05  6984   0.891E-03    0.821E-03
DAV:   5    -0.612730694159E+03   -0.10641E-03   -0.62392E-06  6800   0.573E-03    0.423E-03
DAV:   6    -0.612730616665E+03    0.77494E-04   -0.16811E-06  6344   0.330E-03    0.260E-03
DAV:   7    -0.612730651565E+03   -0.34900E-04   -0.61460E-07  6312   0.232E-03    0.158E-03
DAV:   8    -0.612730646401E+03    0.51634E-05   -0.34684E-07  6280   0.155E-03
  21 F= -.61273065E+03 E0= -.61273065E+03  d E =-.448484E-04
 curvature:  -1.05 expect dE=-0.229E-03 dE for cont linesearch -0.423E-07
 trial: gam= 0.29050 g(F)=  0.188E-03 g(S)=  0.302E-04 ort =-0.799E-05 (trialstep = 0.925E+00)
 search vector abs. value=  0.347E-03
 bond charge predicted
       N       E                     dE             d eps       ncg     rms          rms(c)
DAV:   1    -0.612730727448E+03   -0.75884E-04   -0.49417E-02 12904   0.516E-01    0.700E-02
DAV:   2    -0.612730319526E+03    0.40792E-03   -0.28813E-03 13288   0.123E-01    0.649E-02
DAV:   3    -0.612731489697E+03   -0.11702E-02   -0.84604E-04 16920   0.647E-02    0.740E-02
DAV:   4    -0.612730958382E+03    0.53131E-03   -0.32439E-04 12664   0.416E-02    0.309E-02
DAV:   5    -0.612730631033E+03    0.32735E-03   -0.90923E-05 11168   0.215E-02    0.287E-02
DAV:   6    -0.612730997048E+03   -0.36602E-03   -0.38164E-05  9352   0.170E-02    0.898E-03
DAV:   7    -0.612730847520E+03    0.14953E-03   -0.11538E-05  7104   0.968E-03    0.660E-03
DAV:   8    -0.612730905615E+03   -0.58095E-04   -0.44249E-06  6768   0.620E-03    0.411E-03
DAV:   9    -0.612730878245E+03    0.27371E-04   -0.22145E-06  6592   0.428E-03    0.336E-03
DAV:  10    -0.612730894442E+03   -0.16198E-04   -0.16253E-06  6416   0.390E-03    0.169E-03
DAV:  11    -0.612730885202E+03    0.92404E-05   -0.94497E-07  6304   0.284E-03
  22 F= -.61273089E+03 E0= -.61273089E+03  d E =-.238801E-03
 trial-energy change:   -0.000239  1 .order   -0.000141   -0.000200   -0.000083
 step:   1.0256(harm=  1.5858)  dis= 0.00122  next Energy=  -612.730890 (dE=-0.243E-03)
 bond charge predicted
       N       E                     dE             d eps       ncg     rms          rms(c)
DAV:   1    -0.612730909851E+03   -0.15408E-04   -0.58149E-04 12520   0.561E-02    0.739E-03
DAV:   2    -0.612730858577E+03    0.51273E-04   -0.32430E-05  9568   0.135E-02    0.747E-03
DAV:   3    -0.612730958168E+03   -0.99591E-04   -0.10086E-05  6648   0.826E-03    0.734E-03
DAV:   4    -0.612730911181E+03    0.46987E-04   -0.48127E-06  6408   0.552E-03    0.368E-03
DAV:   5    -0.612730892122E+03    0.19059E-04   -0.16638E-06  6264   0.316E-03    0.288E-03
DAV:   6    -0.612730920640E+03   -0.28518E-04   -0.72778E-07  6248   0.244E-03    0.137E-03
DAV:   7    -0.612730906824E+03    0.13816E-04   -0.39448E-07  6248   0.161E-03    0.107E-03
DAV:   8    -0.612730916154E+03   -0.93297E-05   -0.23674E-07  6248   0.138E-03
  23 F= -.61273092E+03 E0= -.61273092E+03  d E =-.269753E-03
 curvature:  -0.36 expect dE=-0.374E-04 dE for cont linesearch -0.593E-05
 ZBRENT: increasing intervall
 opt :   1.2268  next Energy=  -612.730929 (dE=-0.282E-03)
 bond charge predicted
       N       E                     dE             d eps       ncg     rms          rms(c)
DAV:   1    -0.612730945089E+03   -0.38264E-04   -0.23325E-03 12664   0.112E-01    0.151E-02
DAV:   2    -0.612730814957E+03    0.13013E-03   -0.13866E-04 12808   0.269E-02    0.144E-02
DAV:   3    -0.612731056520E+03   -0.24156E-03   -0.41447E-05  8600   0.145E-02    0.168E-02
DAV:   4    -0.612730969918E+03    0.86602E-04   -0.18384E-05  7296   0.996E-03    0.703E-03
DAV:   5    -0.612730891896E+03    0.78022E-04   -0.43684E-06  7024   0.495E-03    0.597E-03
DAV:   6    -0.612730962750E+03   -0.70854E-04   -0.20659E-06  6328   0.429E-03    0.238E-03
DAV:   7    -0.612730938669E+03    0.24081E-04   -0.10149E-06  6248   0.272E-03    0.169E-03
DAV:   8    -0.612730949974E+03   -0.11305E-04   -0.49442E-07  6248   0.201E-03    0.116E-03
DAV:   9    -0.612730948824E+03    0.11495E-05   -0.29930E-07  6224   0.136E-03
  24 F= -.61273095E+03 E0= -.61273095E+03  d E =-.302423E-03
 curvature:  -0.75 expect dE=-0.881E-04 dE for cont linesearch -0.508E-05
 ZBRENT: increasing intervall
 opt :   1.6290  next Energy=  -612.730957 (dE=-0.311E-03)
 bond charge predicted
       N       E                     dE             d eps       ncg     rms          rms(c)
DAV:   1    -0.612730971930E+03   -0.21957E-04   -0.93414E-03 12904   0.225E-01    0.303E-02
DAV:   2    -0.612730750480E+03    0.22145E-03   -0.55094E-04 13320   0.536E-02    0.289E-02
DAV:   3    -0.612731225108E+03   -0.47463E-03   -0.16338E-04 11664   0.284E-02    0.323E-02
DAV:   4    -0.612731025226E+03    0.19988E-03   -0.63098E-05  8904   0.189E-02    0.137E-02
DAV:   5    -0.612730890645E+03    0.13458E-03   -0.17482E-05  7944   0.100E-02    0.122E-02
DAV:   6    -0.612731040259E+03   -0.14961E-03   -0.82473E-06  7104   0.834E-03    0.457E-03
DAV:   7    -0.612730985364E+03    0.54895E-04   -0.33173E-06  6456   0.518E-03    0.306E-03
DAV:   8    -0.612731002346E+03   -0.16982E-04   -0.14265E-06  6328   0.343E-03    0.214E-03
DAV:   9    -0.612731004568E+03   -0.22218E-05   -0.87209E-07  6240   0.248E-03
  25 F= -.61273100E+03 E0= -.61273100E+03  d E =-.358166E-03
 curvature:  -1.26 expect dE=-0.227E-03 dE for cont linesearch -0.674E-07
 trial: gam= 0.79284 g(F)=  0.175E-03 g(S)=  0.530E-05 ort =-0.430E-05 (trialstep = 0.944E+00)
 search vector abs. value=  0.391E-03
 bond charge predicted
       N       E                     dE             d eps       ncg     rms          rms(c)
DAV:   1    -0.612731213774E+03   -0.21143E-03   -0.56232E-02 12720   0.502E-01    0.645E-02
DAV:   2    -0.612730837868E+03    0.37591E-03   -0.23721E-03 13472   0.110E-01    0.666E-02
DAV:   3    -0.612731703739E+03   -0.86587E-03   -0.67042E-04 16520   0.576E-02    0.635E-02
DAV:   4    -0.612731198260E+03    0.50548E-03   -0.27001E-04 11976   0.385E-02    0.302E-02
DAV:   5    -0.612731061075E+03    0.13718E-03   -0.92830E-05 10520   0.218E-02    0.241E-02
DAV:   6    -0.612731347490E+03   -0.28641E-03   -0.47273E-05  8400   0.171E-02    0.126E-02
DAV:   7    -0.612731131481E+03    0.21601E-03   -0.12224E-05  7496   0.108E-02    0.554E-03
DAV:   8    -0.612731173525E+03   -0.42045E-04   -0.36204E-06  6736   0.517E-03    0.420E-03
DAV:   9    -0.612731167455E+03    0.60705E-05   -0.19264E-06  6584   0.380E-03
  26 F= -.61273117E+03 E0= -.61273117E+03  d E =-.162887E-03
 trial-energy change:   -0.000163  1 .order   -0.000116   -0.000167   -0.000066
 step:   1.0907(harm=  1.5572)  dis= 0.00147  next Energy=  -612.731173 (dE=-0.168E-03)
 bond charge predicted
       N       E                     dE             d eps       ncg     rms          rms(c)
DAV:   1    -0.612731207518E+03   -0.33992E-04   -0.13544E-03 12320   0.783E-02    0.104E-02
DAV:   2    -0.612731154935E+03    0.52583E-04   -0.64055E-05 11584   0.180E-02    0.124E-02
DAV:   3    -0.612731256931E+03   -0.10200E-03   -0.21552E-05  7520   0.108E-02    0.101E-02
DAV:   4    -0.612731176328E+03    0.80603E-04   -0.80525E-06  6808   0.694E-03    0.519E-03
DAV:   5    -0.612731201671E+03   -0.25343E-04   -0.27601E-06  6352   0.386E-03    0.354E-03
DAV:   6    -0.612731198508E+03    0.31630E-05   -0.14039E-06  6344   0.319E-03
  27 F= -.61273120E+03 E0= -.61273120E+03  d E =-.193940E-03
 curvature:  -0.73 expect dE=-0.411E-04 dE for cont linesearch -0.527E-05
 ZBRENT: increasing intervall
 opt :   1.3836  next Energy=  -612.731209 (dE=-0.205E-03)
 bond charge predicted
       N       E                     dE             d eps       ncg     rms          rms(c)
DAV:   1    -0.612731267986E+03   -0.66315E-04   -0.53859E-03 12568   0.156E-01    0.204E-02
DAV:   2    -0.612731076526E+03    0.19146E-03   -0.24281E-04 13640   0.348E-02    0.236E-02
DAV:   3    -0.612731358257E+03   -0.28173E-03   -0.72728E-05  9128   0.191E-02    0.199E-02
DAV:   4    -0.612731234375E+03    0.12388E-03   -0.26503E-05  7520   0.128E-02    0.982E-03
DAV:   5    -0.612731168602E+03    0.65773E-04   -0.95059E-06  6864   0.731E-03    0.757E-03
DAV:   6    -0.612731287403E+03   -0.11880E-03   -0.52063E-06  6800   0.622E-03    0.501E-03
DAV:   7    -0.612731193307E+03    0.94096E-04   -0.24042E-06  6704   0.452E-03    0.206E-03
DAV:   8    -0.612731208070E+03   -0.14763E-04   -0.10793E-06  6280   0.255E-03    0.191E-03
DAV:   9    -0.612731213127E+03   -0.50566E-05   -0.63309E-07  6240   0.200E-03
  28 F= -.61273121E+03 E0= -.61273121E+03  d E =-.208559E-03
 curvature:  -1.49 expect dE=-0.956E-04 dE for cont linesearch -0.143E-05
 ZBRENT: increasing intervall
 opt :   1.9693  next Energy=  -612.731205 (dE=-0.200E-03)
 bond charge predicted
       N       E                     dE             d eps       ncg     rms          rms(c)
DAV:   1    -0.612731304496E+03   -0.96426E-04   -0.21621E-02 12736   0.312E-01    0.399E-02
DAV:   2    -0.612731025292E+03    0.27920E-03   -0.91748E-04 13536   0.676E-02    0.408E-02
DAV:   3    -0.612731558631E+03   -0.53334E-03   -0.25599E-04 14216   0.351E-02    0.397E-02
DAV:   4    -0.612731258294E+03    0.30034E-03   -0.10418E-04  9736   0.243E-02    0.192E-02
DAV:   5    -0.612731159621E+03    0.98673E-04   -0.36133E-05  7960   0.139E-02    0.150E-02
DAV:   6    -0.612731350519E+03   -0.19090E-03   -0.17785E-05  7096   0.110E-02    0.828E-03
DAV:   7    -0.612731209208E+03    0.14131E-03   -0.54206E-06  7008   0.717E-03    0.363E-03
DAV:   8    -0.612731231523E+03   -0.22315E-04   -0.18976E-06  6544   0.362E-03    0.300E-03
DAV:   9    -0.612731236541E+03   -0.50183E-05   -0.10408E-06  6408   0.273E-03
  29 F= -.61273124E+03 E0= -.61273124E+03  d E =-.231973E-03
 curvature:   8.88 expect dE= 0.116E-02 dE for cont linesearch  0.521E-04
 ZBRENT: bracketing found
 ZBRENT: interpolating
 opt :   1.5523  next Energy=  -612.731215 (dE=-0.210E-03)
 bond charge predicted
       N       E                     dE             d eps       ncg     rms          rms(c)
DAV:   1    -0.612731078245E+03    0.15328E-03   -0.10978E-02 12768   0.222E-01    0.290E-02
DAV:   2    -0.612731457040E+03   -0.37880E-03   -0.46174E-04 13472   0.488E-02    0.319E-02
DAV:   3    -0.612731016769E+03    0.44027E-03   -0.13455E-04 10584   0.264E-02    0.284E-02
DAV:   4    -0.612731174801E+03   -0.15803E-03   -0.54858E-05  8280   0.177E-02    0.141E-02
DAV:   5    -0.612731315019E+03   -0.14022E-03   -0.17484E-05  7080   0.102E-02    0.108E-02
DAV:   6    -0.612731130326E+03    0.18469E-03   -0.82050E-06  7008   0.814E-03    0.639E-03
DAV:   7    -0.612731245712E+03   -0.11539E-03   -0.34146E-06  6816   0.576E-03    0.289E-03
DAV:   8    -0.612731229723E+03    0.15989E-04   -0.17077E-06  6128   0.301E-03    0.225E-03
DAV:   9    -0.612731227706E+03    0.20173E-05   -0.76663E-07  6128   0.226E-03
  30 F= -.61273123E+03 E0= -.61273123E+03  d E =-.223138E-03
 curvature:  -0.28 expect dE=-0.202E-04 dE for cont linesearch -0.379E-07
 trial: gam= 0.37094 g(F)=  0.668E-04 g(S)=  0.564E-05 ort =-0.729E-05 (trialstep = 0.107E+01)
 search vector abs. value=  0.121E-03
 bond charge predicted
       N       E                     dE             d eps       ncg     rms          rms(c)
DAV:   1    -0.612731179305E+03    0.50418E-04   -0.26783E-02 12752   0.353E-01    0.593E-02
DAV:   2    -0.612731320968E+03   -0.14166E-03   -0.12857E-03 14088   0.829E-02    0.411E-02
DAV:   3    -0.612731239138E+03    0.81829E-04   -0.26064E-04 15656   0.371E-02    0.420E-02
DAV:   4    -0.612731022757E+03    0.21638E-03   -0.17512E-04 11040   0.302E-02    0.325E-02
DAV:   5    -0.612731353391E+03   -0.33063E-03   -0.89354E-05 10184   0.219E-02    0.211E-02
DAV:   6    -0.612731077668E+03    0.27572E-03   -0.30775E-05  7776   0.136E-02    0.107E-02
DAV:   7    -0.612731197928E+03   -0.12026E-03   -0.96048E-06  6936   0.949E-03    0.632E-03
DAV:   8    -0.612731154072E+03    0.43857E-04   -0.34551E-06  6488   0.532E-03    0.450E-03
DAV:   9    -0.612731179995E+03   -0.25924E-04   -0.24165E-06  6360   0.416E-03    0.359E-03
DAV:  10    -0.612731176490E+03    0.35051E-05   -0.16458E-06  6256   0.350E-03
  31 F= -.61273118E+03 E0= -.61273118E+03  d E =0.512154E-04
 trial-energy change:    0.000051  1 .order   -0.000037   -0.000074   -0.000001
 step:   1.0748(harm=  1.0748)  dis= 0.00063  next Energy=  -612.731265 (dE=-0.375E-04)
 reached required accuracy - stopping structural energy minimisation
 writing wavefunctions
