       N       E                     dE             d eps       ncg     rms          rms(c)
DAV:   1     0.175781014615E+04    0.17578E+04   -0.85786E+04  2000   0.165E+03
DAV:   2     0.189372933219E+02   -0.17389E+04   -0.16733E+04  2432   0.543E+02
DAV:   3    -0.177819560437E+03   -0.19676E+03   -0.19442E+03  2820   0.176E+02
DAV:   4    -0.191220950853E+03   -0.13401E+02   -0.13300E+02  3352   0.433E+01
DAV:   5    -0.191937392588E+03   -0.71644E+00   -0.71193E+00  3264   0.838E+00    0.450E+01
DAV:   6    -0.162739853493E+03    0.29198E+02   -0.16836E+02  2896   0.515E+01    0.297E+01
DAV:   7    -0.164183408051E+03   -0.14436E+01   -0.66103E+01  2896   0.269E+01    0.203E+01
DAV:   8    -0.162450298332E+03    0.17331E+01   -0.38520E+00  3176   0.110E+01    0.123E+01
DAV:   9    -0.163087213256E+03   -0.63691E+00   -0.51508E+00  3152   0.728E+00    0.717E+00
DAV:  10    -0.162647762619E+03    0.43945E+00   -0.13356E+01  2856   0.962E+00    0.255E+00
DAV:  11    -0.162484743942E+03    0.16302E+00   -0.62456E-01  2972   0.351E+00    0.719E-01
DAV:  12    -0.162510669921E+03   -0.25926E-01   -0.25742E-01  2840   0.169E+00    0.109E+00
DAV:  13    -0.162489588332E+03    0.21082E-01   -0.72281E-02  2852   0.934E-01    0.237E-01
DAV:  14    -0.162489565914E+03    0.22418E-04   -0.38163E-03  3432   0.178E-01    0.180E-01
DAV:  15    -0.162489195846E+03    0.37007E-03   -0.13222E-03  2948   0.121E-01    0.802E-02
DAV:  16    -0.162489151998E+03    0.43847E-04   -0.54936E-04  3112   0.699E-02    0.286E-02
DAV:  17    -0.162489189733E+03   -0.37734E-04   -0.12775E-04  2584   0.319E-02    0.310E-02
DAV:  18    -0.162489169497E+03    0.20236E-04   -0.27900E-05  1608   0.223E-02    0.163E-02
DAV:  19    -0.162489164837E+03    0.46599E-05   -0.76479E-06  1360   0.107E-02
   1 F= -.16248916E+03 E0= -.16248916E+03  d E =-.162489E+03
       N       E                     dE             d eps       ncg     rms          rms(c)
DAV:   1    -0.185542366772E+03   -0.23053E+02   -0.75274E+02  2572   0.131E+02    0.433E+01
DAV:   2    -0.170973488798E+03    0.14569E+02   -0.17934E+02  2824   0.524E+01    0.179E+01
DAV:   3    -0.162492247062E+03    0.84812E+01   -0.17691E+01  3140   0.228E+01    0.114E+01
DAV:   4    -0.161913843474E+03    0.57840E+00   -0.77644E+00  2968   0.835E+00    0.922E+00
DAV:   5    -0.162509446725E+03   -0.59560E+00   -0.88269E+00  3048   0.825E+00    0.810E+00
DAV:   6    -0.162292256063E+03    0.21719E+00   -0.83378E-01  3076   0.429E+00    0.460E+00
DAV:   7    -0.162156347962E+03    0.13591E+00   -0.60344E-01  3352   0.350E+00    0.137E+00
DAV:   8    -0.162173529725E+03   -0.17182E-01   -0.21412E-01  3160   0.151E+00    0.705E-01
DAV:   9    -0.162169818949E+03    0.37108E-02   -0.43309E-02  3260   0.704E-01    0.389E-01
DAV:  10    -0.162170749065E+03   -0.93012E-03   -0.10221E-02  2784   0.363E-01    0.164E-01
DAV:  11    -0.162171100004E+03   -0.35094E-03   -0.75419E-03  3128   0.240E-01    0.169E-01
DAV:  12    -0.162170822028E+03    0.27798E-03   -0.41217E-03  2856   0.189E-01    0.475E-02
DAV:  13    -0.162170787845E+03    0.34183E-04   -0.14413E-04  2904   0.413E-02    0.301E-02
DAV:  14    -0.162170766367E+03    0.21478E-04   -0.28403E-05  1624   0.188E-02    0.115E-02
DAV:  15    -0.162170761625E+03    0.47420E-05   -0.56642E-06  1288   0.859E-03
   2 F= -.16217076E+03 E0= -.16217076E+03  d E =0.318403E+00
       N       E                     dE             d eps       ncg     rms          rms(c)
DAV:   1    -0.170630811113E+03   -0.84600E+01   -0.23613E+02  2440   0.723E+01    0.230E+01
DAV:   2    -0.164614188704E+03    0.60166E+01   -0.25014E+01  2364   0.211E+01    0.824E+00
DAV:   3    -0.164059627517E+03    0.55456E+00   -0.17954E+01  2960   0.135E+01    0.628E+00
DAV:   4    -0.163130846464E+03    0.92878E+00   -0.17113E+00  3052   0.699E+00    0.239E+00
DAV:   5    -0.163149571378E+03   -0.18725E-01   -0.64298E-01  3192   0.220E+00    0.168E+00
DAV:   6    -0.163185410858E+03   -0.35839E-01   -0.17020E-01  3108   0.137E+00    0.122E+00
DAV:   7    -0.163210183458E+03   -0.24773E-01   -0.72950E-02  3256   0.720E-01    0.515E-01
DAV:   8    -0.163217817026E+03   -0.76336E-02   -0.32451E-02  3152   0.580E-01    0.284E-01
DAV:   9    -0.163217325106E+03    0.49192E-03   -0.13666E-02  3240   0.344E-01    0.110E-01
DAV:  10    -0.163217272050E+03    0.53056E-04   -0.12530E-03  3012   0.116E-01    0.262E-02
DAV:  11    -0.163217282319E+03   -0.10269E-04   -0.82177E-05  2656   0.311E-02    0.246E-02
DAV:  12    -0.163217271760E+03    0.10559E-04   -0.46886E-05  1848   0.264E-02    0.602E-03
DAV:  13    -0.163217274635E+03   -0.28742E-05   -0.65692E-06  1288   0.140E-02
   3 F= -.16321727E+03 E0= -.16321727E+03  d E =-.728110E+00
       N       E                     dE             d eps       ncg     rms          rms(c)
DAV:   1    -0.163218873936E+03   -0.16022E-02   -0.45664E-02  2512   0.103E+00    0.300E-01
DAV:   2    -0.163217920594E+03    0.95334E-03   -0.60933E-03  2540   0.314E-01    0.128E-01
DAV:   3    -0.163217690919E+03    0.22967E-03   -0.40848E-03  2912   0.201E-01    0.133E-01
DAV:   4    -0.163217493859E+03    0.19706E-03   -0.15861E-03  2848   0.131E-01    0.383E-02
DAV:   5    -0.163217501584E+03   -0.77252E-05   -0.99301E-05  2644   0.317E-02
   4 F= -.16321750E+03 E0= -.16321750E+03  d E =-.728337E+00
       N       E                     dE             d eps       ncg     rms          rms(c)
DAV:   1    -0.163217671794E+03   -0.17793E-03   -0.58926E-03  2528   0.369E-01    0.106E-01
DAV:   2    -0.163217549504E+03    0.12229E-03   -0.67683E-04  2492   0.108E-01    0.452E-02
DAV:   3    -0.163217500408E+03    0.49096E-04   -0.43596E-04  2864   0.680E-02    0.456E-02
DAV:   4    -0.163217504144E+03   -0.37358E-05   -0.20334E-04  2304   0.452E-02    0.197E-02
DAV:   5    -0.163217507305E+03   -0.31611E-05   -0.13172E-05  1520   0.135E-02
   5 F= -.16321751E+03 E0= -.16321751E+03  d E =-.728342E+00
       N       E                     dE             d eps       ncg     rms          rms(c)
DAV:   1    -0.163217547331E+03   -0.43187E-04   -0.60055E-04  2552   0.116E-01    0.365E-02
DAV:   2    -0.163217527228E+03    0.20103E-04   -0.10894E-04  2408   0.392E-02    0.183E-02
DAV:   3    -0.163217542181E+03   -0.14953E-04   -0.58803E-05  1560   0.252E-02    0.169E-02
DAV:   4    -0.163217529567E+03    0.12614E-04   -0.21023E-05  1440   0.190E-02    0.454E-03
DAV:   5    -0.163217529967E+03   -0.40014E-06   -0.30253E-06  1108   0.820E-03
   6 F= -.16321753E+03 E0= -.16321753E+03  d E =-.728365E+00
       N       E                     dE             d eps       ncg     rms          rms(c)
DAV:   1    -0.163217559442E+03   -0.29874E-04   -0.69570E-04  2480   0.128E-01    0.365E-02
DAV:   2    -0.163217534732E+03    0.24710E-04   -0.82752E-05  2280   0.387E-02    0.171E-02
DAV:   3    -0.163217548914E+03   -0.14182E-04   -0.54958E-05  1472   0.258E-02    0.164E-02
DAV:   4    -0.163217534765E+03    0.14149E-04   -0.25115E-05  1432   0.194E-02    0.454E-03
DAV:   5    -0.163217534733E+03    0.31196E-07   -0.35055E-06  1100   0.915E-03
   7 F= -.16321753E+03 E0= -.16321753E+03  d E =-.728370E+00
       N       E                     dE             d eps       ncg     rms          rms(c)
DAV:   1    -0.163217535748E+03   -0.98357E-06   -0.21261E-05  1376   0.253E-02    0.699E-03
DAV:   2    -0.163217533644E+03    0.21045E-05   -0.28593E-06  1096   0.114E-02
   8 F= -.16321753E+03 E0= -.16321753E+03  d E =-.728369E+00
       N       E                     dE             d eps       ncg     rms          rms(c)
DAV:   1    -0.163217541049E+03   -0.53013E-05   -0.11575E-04  2256   0.533E-02    0.161E-02
DAV:   2    -0.163217531194E+03    0.98554E-05   -0.19179E-05  1420   0.202E-02
   9 F= -.16321753E+03 E0= -.16321753E+03  d E =-.728366E+00
       N       E                     dE             d eps       ncg     rms          rms(c)
DAV:   1    -0.163217540339E+03    0.70989E-06   -0.31733E-05  1532   0.283E-02    0.121E-02
DAV:   2    -0.163217528482E+03    0.11857E-04   -0.27443E-05  1420   0.199E-02    0.109E-02
DAV:   3    -0.163217534794E+03   -0.63117E-05   -0.13354E-05  1388   0.117E-02
  10 F= -.16321753E+03 E0= -.16321753E+03  d E =-.728370E+00
       N       E                     dE             d eps       ncg     rms          rms(c)
DAV:   1    -0.163217533099E+03   -0.46173E-05   -0.99041E-07  1088   0.382E-03    0.242E-03
DAV:   2    -0.163217532665E+03    0.43472E-06   -0.30483E-07  1072   0.299E-03
  11 F= -.16321753E+03 E0= -.16321753E+03  d E =-.728368E+00
       N       E                     dE             d eps       ncg     rms          rms(c)
DAV:   1    -0.163217532542E+03    0.55767E-06   -0.64512E-07  1072   0.371E-03    0.203E-03
DAV:   2    -0.163217532472E+03    0.69969E-07   -0.22308E-07  1072   0.268E-03
  12 F= -.16321753E+03 E0= -.16321753E+03  d E =-.728368E+00
       N       E                     dE             d eps       ncg     rms          rms(c)
DAV:   1    -0.163217531995E+03    0.54635E-06   -0.15482E-07  1072   0.163E-03    0.815E-04
DAV:   2    -0.163217532636E+03   -0.64031E-06   -0.17796E-07  1072   0.190E-03
  13 F= -.16321753E+03 E0= -.16321753E+03  d E =-.728368E+00
       N       E                     dE             d eps       ncg     rms          rms(c)
DAV:   1    -0.163217532078E+03   -0.82217E-07   -0.10747E-07  1072   0.131E-03    0.482E-04
DAV:   2    -0.163217532261E+03   -0.18295E-06   -0.48257E-08  1072   0.101E-03
  14 F= -.16321753E+03 E0= -.16321753E+03  d E =-.728367E+00
       N       E                     dE             d eps       ncg     rms          rms(c)
DAV:   1    -0.163217532017E+03    0.60872E-07   -0.34289E-08  1072   0.773E-04    0.352E-04
DAV:   2    -0.163217532187E+03   -0.16981E-06   -0.24215E-08  1072   0.718E-04
  15 F= -.16321753E+03 E0= -.16321753E+03  d E =-.728367E+00
       N       E                     dE             d eps       ncg     rms          rms(c)
DAV:   1    -0.166953586178E+03   -0.37361E+01   -0.14763E+02  2492   0.588E+01    0.186E+01
DAV:   2    -0.163406477287E+03    0.35471E+01   -0.15666E+01  2428   0.170E+01    0.684E+00
DAV:   3    -0.162993227164E+03    0.41325E+00   -0.10506E+01  2864   0.109E+01    0.519E+00
DAV:   4    -0.162420044352E+03    0.57318E+00   -0.13103E+00  2960   0.814E+00    0.184E+00
DAV:   5    -0.162446362533E+03   -0.26318E-01   -0.34505E-01  3120   0.162E+00    0.147E+00
DAV:   6    -0.162469774065E+03   -0.23412E-01   -0.58174E-02  3196   0.783E-01    0.106E+00
DAV:   7    -0.162489872864E+03   -0.20099E-01   -0.36463E-02  3296   0.493E-01    0.321E-01
DAV:   8    -0.162492174153E+03   -0.23013E-02   -0.10087E-02  3336   0.304E-01    0.162E-01
DAV:   9    -0.162492510357E+03   -0.33620E-03   -0.30816E-03  3068   0.178E-01    0.646E-02
DAV:  10    -0.162492531790E+03   -0.21434E-04   -0.48012E-04  2976   0.746E-02    0.228E-02
DAV:  11    -0.162492530141E+03    0.16492E-05   -0.66029E-05  2180   0.324E-02
  16 F= -.16249253E+03 E0= -.16249253E+03  d E =-.336530E-02
