 running on  100 total cores
 distrk:  each k-point on  100 cores,    1 groups
 distr:  one band on   25 cores,    4 groups
 using from now: INCAR     
 vasp.5.4.4.18Apr17-6-g9f103f2a35 (build May 23 2017 16:08:52) complex          
  
 POSCAR found :  4 types and      75 ions
 scaLAPACK will be used

 ----------------------------------------------------------------------------- 
|                                                                             |
|           W    W    AA    RRRRR   N    N  II  N    N   GGGG   !!!           |
|           W    W   A  A   R    R  NN   N  II  NN   N  G    G  !!!           |
|           W    W  A    A  R    R  N N  N  II  N N  N  G       !!!           |
|           W WW W  AAAAAA  RRRRR   N  N N  II  N  N N  G  GGG   !            |
|           WW  WW  A    A  R   R   N   NN  II  N   NN  G    G                |
|           W    W  A    A  R    R  N    N  II  N    N   GGGG   !!!           |
|                                                                             |
|      For optimal performance we recommend to set                            |
|        NCORE= 4 - approx SQRT( number of cores)                             |
|      NCORE specifies how many cores store one orbital (NPAR=cpu/NCORE).     |
|      This setting can  greatly improve the performance of VASP for DFT.     |
|      The default,   NCORE=1            might be grossly inefficient         |
|      on modern multi-core architectures or massively parallel machines.     |
|      Do your own testing !!!!                                               |
|      Unfortunately you need to use the default for GW and RPA calculations. |
|      (for HF NCORE is supported but not extensively tested yet)             |
|                                                                             |
 ----------------------------------------------------------------------------- 


 ----------------------------------------------------------------------------- 
|                                                                             |
|  ADVICE TO THIS USER RUNNING 'VASP/VAMP'   (HEAR YOUR MASTER'S VOICE ...):  |
|                                                                             |
|      You have a (more or less) 'large supercell' and for larger cells       |
|      it might be more efficient to use real space projection opertators     |
|      So try LREAL= Auto  in the INCAR   file.                               |
|      Mind:          For very  accurate calculation you might also keep the  |
|      reciprocal projection scheme          (i.e. LREAL=.FALSE.)             |
|                                                                             |
 ----------------------------------------------------------------------------- 

 LDA part: xc-table for Pade appr. of Perdew
 POSCAR, INCAR and KPOINTS ok, starting setup
 FFT: planning ...
 WAVECAR not read
 entering main loop
       N       E                     dE             d eps       ncg     rms          rms(c)
DAV:   1     0.729381298473E+04    0.72938E+04   -0.31180E+05 11648   0.173E+03
DAV:   2     0.552883682062E+03   -0.67409E+04   -0.63571E+04 12616   0.563E+02
DAV:   3    -0.633467767664E+03   -0.11864E+04   -0.11628E+04 16032   0.215E+02
DAV:   4    -0.723256853775E+03   -0.89789E+02   -0.88792E+02 17960   0.644E+01
DAV:   5    -0.730464389482E+03   -0.72075E+01   -0.71434E+01 21408   0.142E+01    0.911E+01
DAV:   6    -0.609336643270E+03    0.12113E+03   -0.73034E+02 16328   0.598E+01    0.573E+01
DAV:   7    -0.614529425790E+03   -0.51928E+01   -0.15357E+02 17032   0.312E+01    0.408E+01
DAV:   8    -0.618354433145E+03   -0.38250E+01   -0.91001E+01 17192   0.232E+01    0.231E+01
DAV:   9    -0.618448726766E+03   -0.94294E-01   -0.82720E+01 16720   0.220E+01    0.236E+01
DAV:  10    -0.615216942313E+03    0.32318E+01   -0.66068E+01 16344   0.163E+01    0.206E+01
DAV:  11    -0.612180199207E+03    0.30367E+01   -0.50040E+01 16200   0.121E+01    0.175E+01
DAV:  12    -0.607860159622E+03    0.43200E+01   -0.16164E+01 16600   0.769E+00    0.479E+00
DAV:  13    -0.607763155275E+03    0.97004E-01   -0.45399E+00 18080   0.399E+00    0.464E+00
DAV:  14    -0.607499148160E+03    0.26401E+00   -0.15554E+00 16472   0.239E+00    0.243E+00
DAV:  15    -0.607503318642E+03   -0.41705E-02   -0.51804E-01 18552   0.150E+00    0.229E+00
DAV:  16    -0.607495338039E+03    0.79806E-02   -0.35014E-01 16600   0.110E+00    0.137E+00
DAV:  17    -0.607476446686E+03    0.18891E-01   -0.14496E-01 17592   0.877E-01    0.698E-01
DAV:  18    -0.607467427226E+03    0.90195E-02   -0.45741E-02 15952   0.520E-01    0.537E-01
DAV:  19    -0.607467563258E+03   -0.13603E-03   -0.31926E-02 15832   0.352E-01    0.218E-01
DAV:  20    -0.607466974729E+03    0.58853E-03   -0.46251E-03 17464   0.157E-01    0.149E-01
DAV:  21    -0.607466347833E+03    0.62690E-03   -0.27234E-03 17056   0.110E-01    0.104E-01
DAV:  22    -0.607467750593E+03   -0.14028E-02   -0.25632E-03 16928   0.912E-02    0.887E-02
DAV:  23    -0.607467597403E+03    0.15319E-03   -0.66388E-04 16928   0.447E-02    0.667E-02
DAV:  24    -0.607467263560E+03    0.33384E-03   -0.27056E-04 13760   0.345E-02    0.337E-02
DAV:  25    -0.607467149414E+03    0.11415E-03   -0.74912E-05 10600   0.213E-02    0.201E-02
DAV:  26    -0.607467085997E+03    0.63417E-04   -0.45286E-05  7968   0.180E-02    0.151E-02
DAV:  27    -0.607466995085E+03    0.90912E-04   -0.17974E-05  7144   0.137E-02    0.105E-02
DAV:  28    -0.607467035205E+03   -0.40120E-04   -0.69920E-06  6784   0.783E-03    0.571E-03
DAV:  29    -0.607467038437E+03   -0.32318E-05   -0.20377E-06  6760   0.464E-03
   1 F= -.60746704E+03 E0= -.60746704E+03  d E =-.607467E+03
 curvature:   0.00 expect dE= 0.000E+00 dE for cont linesearch  0.000E+00
 trial: gam= 0.00000 g(F)=  0.839E+00 g(S)=  0.632E+01 ort = 0.000E+00 (trialstep = 0.100E+01)
 search vector abs. value=  0.716E+01
 bond charge predicted
       N       E                     dE             d eps       ncg     rms          rms(c)
DAV:   1    -0.651736578438E+03   -0.44270E+02   -0.14901E+03 15072   0.101E+02    0.580E+01
DAV:   2    -0.626268241294E+03    0.25468E+02   -0.21037E+02 15744   0.412E+01    0.270E+01
DAV:   3    -0.617520032997E+03    0.87482E+01   -0.88997E+01 17280   0.253E+01    0.200E+01
DAV:   4    -0.611365745634E+03    0.61543E+01   -0.38422E+01 16744   0.169E+01    0.183E+01
DAV:   5    -0.609531040072E+03    0.18347E+01   -0.38613E+01 16952   0.119E+01    0.153E+01
DAV:   6    -0.609503482260E+03    0.27558E-01   -0.30866E+01 16920   0.917E+00    0.137E+01
DAV:   7    -0.608895279558E+03    0.60820E+00   -0.14992E+01 16792   0.715E+00    0.109E+01
DAV:   8    -0.607841916433E+03    0.10534E+01   -0.45367E+00 17088   0.494E+00    0.676E+00
DAV:   9    -0.607913845738E+03   -0.71929E-01   -0.41266E+00 18748   0.392E+00    0.569E+00
DAV:  10    -0.607695691568E+03    0.21815E+00   -0.15069E+00 17876   0.236E+00    0.311E+00
DAV:  11    -0.607656969869E+03    0.38722E-01   -0.86899E-01 17992   0.179E+00    0.213E+00
DAV:  12    -0.607614307824E+03    0.42662E-01   -0.33761E-01 16336   0.122E+00    0.119E+00
DAV:  13    -0.607596281841E+03    0.18026E-01   -0.11403E-01 16416   0.638E-01    0.938E-01
DAV:  14    -0.607593547728E+03    0.27341E-02   -0.71225E-02 17384   0.455E-01    0.685E-01
DAV:  15    -0.607592971947E+03    0.57578E-03   -0.40234E-02 16992   0.336E-01    0.437E-01
DAV:  16    -0.607591222040E+03    0.17499E-02   -0.89195E-03 16304   0.167E-01    0.253E-01
DAV:  17    -0.607590486831E+03    0.73521E-03   -0.83740E-03 16720   0.146E-01    0.233E-01
DAV:  18    -0.607590231855E+03    0.25498E-03   -0.53410E-03 17296   0.981E-02    0.151E-01
DAV:  19    -0.607590319375E+03   -0.87520E-04   -0.18668E-03 18216   0.692E-02    0.987E-02
DAV:  20    -0.607590373701E+03   -0.54326E-04   -0.16240E-03 17056   0.441E-02    0.718E-02
DAV:  21    -0.607590286617E+03    0.87084E-04   -0.51077E-04 14576   0.322E-02    0.398E-02
DAV:  22    -0.607590275389E+03    0.11228E-04   -0.29969E-04 10560   0.205E-02    0.421E-02
DAV:  23    -0.607590248675E+03    0.26714E-04   -0.26930E-04  7424   0.172E-02    0.213E-02
DAV:  24    -0.607590285201E+03   -0.36526E-04   -0.26943E-05  7104   0.109E-02    0.121E-02
DAV:  25    -0.607590293697E+03   -0.84964E-05   -0.96402E-06  6864   0.881E-03
   2 F= -.60759029E+03 E0= -.60759029E+03  d E =-.123255E+00
 trial-energy change:   -0.123255  1 .order   -0.378365   -7.158777    6.402046
 step:   0.4997(harm=  0.5279)  dis= 0.02349  next Energy=  -609.223770 (dE=-0.176E+01)
 bond charge predicted
       N       E                     dE             d eps       ncg     rms          rms(c)
DAV:   1    -0.620646525422E+03   -0.13056E+02   -0.37680E+02 14944   0.499E+01    0.284E+01
DAV:   2    -0.611706906683E+03    0.89396E+01   -0.43866E+01 14376   0.156E+01    0.113E+01
DAV:   3    -0.615106329180E+03   -0.33994E+01   -0.27278E+01 16496   0.150E+01    0.133E+01
DAV:   4    -0.610311584194E+03    0.47947E+01   -0.14180E+01 16656   0.930E+00    0.734E+00
DAV:   5    -0.609325205077E+03    0.98638E+00   -0.74606E+00 16592   0.469E+00    0.395E+00
DAV:   6    -0.609138528715E+03    0.18668E+00   -0.24095E+00 17464   0.293E+00    0.274E+00
DAV:   7    -0.609109504053E+03    0.29025E-01   -0.53689E-01 17476   0.157E+00    0.200E+00
DAV:   8    -0.609159078076E+03   -0.49574E-01   -0.27243E-01 16976   0.109E+00    0.212E+00
DAV:   9    -0.609154863332E+03    0.42147E-02   -0.24536E-01 17072   0.951E-01    0.155E+00
DAV:  10    -0.609199321357E+03   -0.44458E-01   -0.16452E-01 18732   0.916E-01    0.128E+00
DAV:  11    -0.609196517591E+03    0.28038E-02   -0.96106E-02 18120   0.693E-01    0.473E-01
DAV:  12    -0.609197452208E+03   -0.93462E-03   -0.42253E-02 18468   0.384E-01    0.366E-01
DAV:  13    -0.609197387775E+03    0.64433E-04   -0.91401E-03 17384   0.222E-01    0.188E-01
DAV:  14    -0.609198491797E+03   -0.11040E-02   -0.58961E-03 17844   0.119E-01    0.151E-01
DAV:  15    -0.609198417444E+03    0.74353E-04   -0.32206E-03 16440   0.928E-02    0.102E-01
DAV:  16    -0.609198144241E+03    0.27320E-03   -0.89358E-04 16772   0.647E-02    0.474E-02
DAV:  17    -0.609198313077E+03   -0.16884E-03   -0.36429E-04 15592   0.357E-02    0.369E-02
DAV:  18    -0.609198330105E+03   -0.17029E-04   -0.16999E-04 13024   0.249E-02    0.230E-02
DAV:  19    -0.609198318932E+03    0.11174E-04   -0.68185E-05  8520   0.165E-02    0.152E-02
DAV:  20    -0.609198246319E+03    0.72612E-04   -0.31242E-05  7008   0.138E-02    0.101E-02
DAV:  21    -0.609198297276E+03   -0.50956E-04   -0.13009E-05  6928   0.991E-03    0.628E-03
DAV:  22    -0.609198322985E+03   -0.25709E-04   -0.47470E-06  6752   0.683E-03    0.478E-03
DAV:  23    -0.609198308223E+03    0.14762E-04   -0.22745E-06  6576   0.485E-03    0.284E-03
DAV:  24    -0.609198306710E+03    0.15122E-05   -0.12751E-06  6552   0.304E-03
   3 F= -.60919831E+03 E0= -.60919831E+03  d E =-.173127E+01
 curvature:  -0.26 expect dE=-0.965E-01 dE for cont linesearch -0.340E-03
 ZBRENT: interpolating
 opt :   0.4931  next Energy=  -609.198625 (dE=-0.173E+01)
 bond charge predicted
       N       E                     dE             d eps       ncg     rms          rms(c)
DAV:   1    -0.609200743611E+03   -0.24354E-02   -0.66377E-02 15012   0.670E-01    0.368E-01
DAV:   2    -0.609198840709E+03    0.19029E-02   -0.80102E-03 14776   0.221E-01    0.177E-01
DAV:   3    -0.609196566220E+03    0.22745E-02   -0.15211E-02 16372   0.223E-01    0.342E-01
DAV:   4    -0.609200302897E+03   -0.37367E-02   -0.18784E-02 15920   0.200E-01    0.244E-01
DAV:   5    -0.609198396470E+03    0.19064E-02   -0.65321E-03 15528   0.107E-01    0.724E-02
DAV:   6    -0.609198576697E+03   -0.18023E-03   -0.94044E-04 16816   0.537E-02    0.805E-02
DAV:   7    -0.609198329949E+03    0.24675E-03   -0.49119E-04 14104   0.430E-02    0.451E-02
DAV:   8    -0.609198561501E+03   -0.23155E-03   -0.82760E-05 11216   0.206E-02    0.310E-02
DAV:   9    -0.609198500638E+03    0.60863E-04   -0.39177E-05 10176   0.137E-02    0.220E-02
DAV:  10    -0.609198581857E+03   -0.81218E-04   -0.39247E-05  8528   0.165E-02    0.171E-02
DAV:  11    -0.609198523133E+03    0.58723E-04   -0.67932E-05  7608   0.139E-02    0.108E-02
DAV:  12    -0.609198553226E+03   -0.30093E-04   -0.13578E-05  6800   0.989E-03    0.613E-03
DAV:  13    -0.609198558251E+03   -0.50250E-05   -0.10325E-05  6440   0.627E-03
   4 F= -.60919856E+03 E0= -.60919856E+03  d E =-.173152E+01
 curvature:  -0.25 expect dE=-0.879E-01 dE for cont linesearch -0.209E-05
 trial: gam= 0.05087 g(F)=  0.323E+00 g(S)=  0.332E-01 ort =-0.778E-02 (trialstep = 0.899E+00)
 search vector abs. value=  0.374E+00
 bond charge predicted
       N       E                     dE             d eps       ncg     rms          rms(c)
DAV:   1    -0.609391891959E+03   -0.19334E+00   -0.37020E+01 12724   0.101E+01    0.237E+00
DAV:   2    -0.609479070026E+03   -0.87178E-01   -0.14248E+00 14008   0.236E+00    0.199E+00
DAV:   3    -0.609493985846E+03   -0.14916E-01   -0.46749E-01 16824   0.139E+00    0.162E+00
DAV:   4    -0.609501084904E+03   -0.70991E-02   -0.49683E-01 15608   0.121E+00    0.174E+00
DAV:   5    -0.609462692873E+03    0.38392E-01   -0.42206E-01 15336   0.996E-01    0.879E-01
DAV:   6    -0.609484962600E+03   -0.22270E-01   -0.21317E-01 16584   0.831E-01    0.143E+00
DAV:   7    -0.609454830508E+03    0.30132E-01   -0.14290E-01 15632   0.663E-01    0.229E-01
DAV:   8    -0.609453680014E+03    0.11505E-02   -0.10845E-02 18540   0.214E-01    0.218E-01
DAV:   9    -0.609454095394E+03   -0.41538E-03   -0.45123E-03 17528   0.124E-01    0.113E-01
DAV:  10    -0.609453829150E+03    0.26624E-03   -0.12590E-03 16576   0.696E-02    0.791E-02
DAV:  11    -0.609453621511E+03    0.20764E-03   -0.59787E-04 16056   0.514E-02    0.559E-02
DAV:  12    -0.609453863888E+03   -0.24238E-03   -0.48989E-04 14808   0.389E-02    0.322E-02
DAV:  13    -0.609453732885E+03    0.13100E-03   -0.10040E-04 10272   0.231E-02    0.166E-02
DAV:  14    -0.609453728095E+03    0.47894E-05   -0.63585E-05  7480   0.139E-02
   5 F= -.60945373E+03 E0= -.60945373E+03  d E =-.255170E+00
 trial-energy change:   -0.255170  1 .order   -0.259046   -0.319883   -0.198208
 step:   2.3625(harm=  2.3625)  dis= 0.09038  next Energy=  -609.619045 (dE=-0.420E+00)
 bond charge predicted
       N       E                     dE             d eps       ncg     rms          rms(c)
DAV:   1    -0.609436973866E+03    0.16759E-01   -0.98219E+01 12596   0.165E+01    0.394E+00
DAV:   2    -0.609662243270E+03   -0.22527E+00   -0.36656E+00 14060   0.392E+00    0.332E+00
DAV:   3    -0.609737429298E+03   -0.75186E-01   -0.12948E+00 16816   0.227E+00    0.291E+00
DAV:   4    -0.609694121708E+03    0.43308E-01   -0.16655E+00 15260   0.214E+00    0.229E+00
DAV:   5    -0.609638763294E+03    0.55358E-01   -0.66836E-01 16064   0.152E+00    0.176E+00
DAV:   6    -0.609648547492E+03   -0.97842E-02   -0.57736E-01 17224   0.124E+00    0.156E+00
DAV:   7    -0.609631815281E+03    0.16732E-01   -0.37340E-01 16160   0.101E+00    0.173E+00
DAV:   8    -0.609607395089E+03    0.24420E-01   -0.24593E-01 16340   0.606E-01    0.426E-01
DAV:   9    -0.609608309266E+03   -0.91418E-03   -0.15497E-02 18896   0.287E-01    0.332E-01
DAV:  10    -0.609606695872E+03    0.16134E-02   -0.65875E-03 16888   0.157E-01    0.152E-01
DAV:  11    -0.609607179172E+03   -0.48330E-03   -0.29529E-03 16040   0.906E-02    0.114E-01
DAV:  12    -0.609607169398E+03    0.97739E-05   -0.23494E-03 17112   0.818E-02    0.112E-01
DAV:  13    -0.609607047834E+03    0.12156E-03   -0.23180E-03 16224   0.671E-02    0.828E-02
DAV:  14    -0.609606993457E+03    0.54377E-04   -0.71331E-04 14088   0.396E-02    0.348E-02
DAV:  15    -0.609606930799E+03    0.62658E-04   -0.15177E-04 10240   0.173E-02    0.152E-02
DAV:  16    -0.609606928395E+03    0.24041E-05   -0.32202E-05  7008   0.137E-02
   6 F= -.60960693E+03 E0= -.60960693E+03  d E =-.408370E+00
 curvature:  -1.24 expect dE=-0.285E+00 dE for cont linesearch -0.525E-03
 trial: gam= 0.70638 g(F)=  0.186E+00 g(S)=  0.432E-01 ort =-0.126E-01 (trialstep = 0.112E+01)
 search vector abs. value=  0.399E+00
 bond charge predicted
       N       E                     dE             d eps       ncg     rms          rms(c)
DAV:   1    -0.609514979794E+03    0.91951E-01   -0.75269E+01 12368   0.181E+01    0.312E+00
DAV:   2    -0.609756788366E+03   -0.24181E+00   -0.38634E+00 13448   0.461E+00    0.270E+00
DAV:   3    -0.609832262304E+03   -0.75474E-01   -0.11078E+00 17816   0.203E+00    0.275E+00
DAV:   4    -0.609766706708E+03    0.65556E-01   -0.12066E+00 15400   0.171E+00    0.189E+00
DAV:   5    -0.609731936328E+03    0.34770E-01   -0.37543E-01 15764   0.114E+00    0.141E+00
DAV:   6    -0.609779689471E+03   -0.47753E-01   -0.62261E-01 16296   0.131E+00    0.183E+00
DAV:   7    -0.609716826311E+03    0.62863E-01   -0.43761E-01 15976   0.103E+00    0.630E-01
DAV:   8    -0.609711157259E+03    0.56691E-02   -0.36034E-02 18448   0.393E-01    0.301E-01
DAV:   9    -0.609710168707E+03    0.98855E-03   -0.52053E-03 17716   0.174E-01    0.205E-01
DAV:  10    -0.609710540505E+03   -0.37180E-03   -0.39042E-03 17096   0.134E-01    0.189E-01
DAV:  11    -0.609710078151E+03    0.46235E-03   -0.36996E-03 16376   0.120E-01    0.118E-01
DAV:  12    -0.609710264050E+03   -0.18590E-03   -0.18793E-03 17024   0.935E-02    0.828E-02
DAV:  13    -0.609710359833E+03   -0.95784E-04   -0.77079E-04 16088   0.567E-02    0.469E-02
DAV:  14    -0.609710129160E+03    0.23067E-03   -0.20362E-04 12576   0.320E-02    0.254E-02
DAV:  15    -0.609710203443E+03   -0.74283E-04   -0.52742E-05  8872   0.175E-02    0.173E-02
DAV:  16    -0.609710221944E+03   -0.18501E-04   -0.42887E-05  7448   0.128E-02    0.141E-02
DAV:  17    -0.609710206923E+03    0.15021E-04   -0.37340E-05  6808   0.895E-03    0.157E-02
DAV:  18    -0.609710201397E+03    0.55259E-05   -0.29718E-05  6728   0.771E-03
   7 F= -.60971020E+03 E0= -.60971020E+03  d E =-.103273E+00
 trial-energy change:   -0.103273  1 .order   -0.104133   -0.246911    0.038645
 step:   0.9644(harm=  0.9668)  dis= 0.03350  next Energy=  -609.712860 (dE=-0.106E+00)
 bond charge predicted
       N       E                     dE             d eps       ncg     rms          rms(c)
DAV:   1    -0.609708241418E+03    0.19655E-02   -0.14213E+00 12320   0.249E+00    0.432E-01
DAV:   2    -0.609715860412E+03   -0.76190E-02   -0.74226E-02 13564   0.630E-01    0.404E-01
DAV:   3    -0.609714838117E+03    0.10223E-02   -0.36690E-02 16636   0.346E-01    0.493E-01
DAV:   4    -0.609713275671E+03    0.15624E-02   -0.27511E-02 15212   0.258E-01    0.273E-01
DAV:   5    -0.609714338523E+03   -0.10629E-02   -0.77949E-03 15976   0.187E-01    0.222E-01
DAV:   6    -0.609713990224E+03    0.34830E-03   -0.66469E-03 15868   0.172E-01    0.166E-01
DAV:   7    -0.609712685708E+03    0.13045E-02   -0.19390E-03 16036   0.107E-01    0.755E-02
DAV:   8    -0.609712942900E+03   -0.25719E-03   -0.45769E-04 17848   0.525E-02    0.452E-02
DAV:   9    -0.609712874939E+03    0.67962E-04   -0.30557E-04 13656   0.271E-02    0.354E-02
DAV:  10    -0.609712878583E+03   -0.36441E-05   -0.11931E-04  9896   0.210E-02    0.237E-02
DAV:  11    -0.609712892863E+03   -0.14280E-04   -0.11190E-04  8680   0.189E-02    0.306E-02
DAV:  12    -0.609712867728E+03    0.25134E-04   -0.12918E-04  7848   0.158E-02    0.156E-02
DAV:  13    -0.609712877826E+03   -0.10098E-04   -0.25743E-05  7128   0.106E-02    0.101E-02
DAV:  14    -0.609712875358E+03    0.24676E-05   -0.17256E-05  6632   0.716E-03
   8 F= -.60971288E+03 E0= -.60971288E+03  d E =-.105947E+00
 curvature:  -0.87 expect dE=-0.246E-01 dE for cont linesearch -0.635E-06
 trial: gam= 0.05364 g(F)=  0.226E-01 g(S)=  0.555E-02 ort =-0.539E-03 (trialstep = 0.109E+01)
 search vector abs. value=  0.293E-01
 bond charge predicted
       N       E                     dE             d eps       ncg     rms          rms(c)
DAV:   1    -0.609710897963E+03    0.19799E-02   -0.65760E+00 12140   0.676E+00    0.145E+00
DAV:   2    -0.609735854228E+03   -0.24956E-01   -0.59852E-01 13068   0.180E+00    0.834E-01
DAV:   3    -0.609750222557E+03   -0.14368E-01   -0.19397E-01 16440   0.902E-01    0.134E+00
DAV:   4    -0.609731056398E+03    0.19166E-01   -0.25252E-01 15152   0.789E-01    0.712E-01
DAV:   5    -0.609727637171E+03    0.34192E-02   -0.41749E-02 16776   0.460E-01    0.413E-01
DAV:   6    -0.609730108701E+03   -0.24715E-02   -0.45876E-02 17440   0.366E-01    0.538E-01
DAV:   7    -0.609724598041E+03    0.55107E-02   -0.35328E-02 16168   0.276E-01    0.187E-01
DAV:   8    -0.609724801316E+03   -0.20327E-03   -0.26413E-03 17588   0.124E-01    0.142E-01
DAV:   9    -0.609724914214E+03   -0.11290E-03   -0.13498E-03 19128   0.738E-02    0.117E-01
DAV:  10    -0.609724981954E+03   -0.67740E-04   -0.10079E-03 16612   0.644E-02    0.997E-02
DAV:  11    -0.609724941693E+03    0.40261E-04   -0.66866E-04 15728   0.589E-02    0.614E-02
DAV:  12    -0.609724935924E+03    0.57692E-05   -0.24450E-04 14536   0.438E-02    0.248E-02
DAV:  13    -0.609724911609E+03    0.24315E-04   -0.42106E-05 10932   0.186E-02    0.107E-02
DAV:  14    -0.609724904525E+03    0.70840E-05   -0.14736E-05  7208   0.128E-02
   9 F= -.60972490E+03 E0= -.60972490E+03  d E =-.120292E-01
 trial-energy change:   -0.012029  1 .order   -0.010665   -0.030631    0.009300
 step:   0.8698(harm=  0.8341)  dis= 0.00732  next Energy=  -609.725824 (dE=-0.129E-01)
 bond charge predicted
       N       E                     dE             d eps       ncg     rms          rms(c)
DAV:   1    -0.609725243095E+03   -0.33149E-03   -0.26305E-01 12184   0.135E+00    0.288E-01
DAV:   2    -0.609725711974E+03   -0.46888E-03   -0.24282E-02 13108   0.360E-01    0.176E-01
DAV:   3    -0.609728203817E+03   -0.24918E-02   -0.11785E-02 16076   0.202E-01    0.349E-01
DAV:   4    -0.609725798610E+03    0.24052E-02   -0.13323E-02 14520   0.174E-01    0.138E-01
DAV:   5    -0.609725918071E+03   -0.11946E-03   -0.28290E-03 17248   0.108E-01    0.116E-01
DAV:   6    -0.609725532322E+03    0.38575E-03   -0.16889E-03 16160   0.913E-02    0.861E-02
DAV:   7    -0.609725752418E+03   -0.22010E-03   -0.37838E-04 15224   0.525E-02    0.332E-02
DAV:   8    -0.609725657162E+03    0.95256E-04   -0.71958E-05 11460   0.236E-02    0.266E-02
DAV:   9    -0.609725671126E+03   -0.13963E-04   -0.25587E-05  7864   0.158E-02    0.194E-02
DAV:  10    -0.609725681787E+03   -0.10661E-04   -0.36071E-05  7720   0.168E-02    0.191E-02
DAV:  11    -0.609725667623E+03    0.14164E-04   -0.45161E-05  7428   0.159E-02    0.130E-02
DAV:  12    -0.609725671244E+03   -0.36211E-05   -0.17651E-05  6884   0.105E-02
  10 F= -.60972567E+03 E0= -.60972567E+03  d E =-.127959E-01
 curvature:  -0.43 expect dE=-0.276E-02 dE for cont linesearch -0.251E-04
 ZBRENT: interpolating
 opt :   0.8310  next Energy=  -609.725697 (dE=-0.128E-01)
 bond charge predicted
       N       E                     dE             d eps       ncg     rms          rms(c)
DAV:   1    -0.609725642905E+03    0.24718E-04   -0.83423E-03 12224   0.241E-01    0.500E-02
DAV:   2    -0.609725610895E+03    0.32009E-04   -0.75736E-04 13144   0.640E-02    0.298E-02
DAV:   3    -0.609725839286E+03   -0.22839E-03   -0.26718E-04 12720   0.341E-02    0.528E-02
DAV:   4    -0.609725623120E+03    0.21617E-03   -0.31207E-04 10384   0.300E-02    0.266E-02
DAV:   5    -0.609725678320E+03   -0.55200E-04   -0.11573E-04  9288   0.207E-02    0.224E-02
DAV:   6    -0.609725590307E+03    0.88013E-04   -0.55018E-05  8016   0.173E-02    0.141E-02
DAV:   7    -0.609725654160E+03   -0.63852E-04   -0.12294E-05  6816   0.102E-02    0.591E-03
DAV:   8    -0.609725643949E+03    0.10211E-04   -0.36827E-06  6296   0.567E-03    0.509E-03
DAV:   9    -0.609725641085E+03    0.28638E-05   -0.19189E-06  6092   0.402E-03
  11 F= -.60972564E+03 E0= -.60972564E+03  d E =-.127657E-01
 curvature:  -0.43 expect dE=-0.251E-02 dE for cont linesearch -0.583E-07
 trial: gam= 0.20498 g(F)=  0.483E-02 g(S)=  0.983E-03 ort = 0.629E-04 (trialstep = 0.104E+01)
 search vector abs. value=  0.707E-02
 bond charge predicted
       N       E                     dE             d eps       ncg     rms          rms(c)
DAV:   1    -0.609726812770E+03   -0.11688E-02   -0.13606E+00 12724   0.281E+00    0.505E-01
DAV:   2    -0.609729642991E+03   -0.28302E-02   -0.84856E-02 13104   0.676E-01    0.378E-01
DAV:   3    -0.609738421756E+03   -0.87788E-02   -0.60341E-02 16864   0.385E-01    0.708E-01
DAV:   4    -0.609730324597E+03    0.80972E-02   -0.54582E-02 15632   0.324E-01    0.227E-01
DAV:   5    -0.609729494337E+03    0.83026E-03   -0.65585E-03 17616   0.169E-01    0.208E-01
DAV:   6    -0.609730271513E+03   -0.77718E-03   -0.70294E-03 16984   0.162E-01    0.199E-01
DAV:   7    -0.609729932722E+03    0.33879E-03   -0.45405E-03 15804   0.121E-01    0.737E-02
DAV:   8    -0.609729658205E+03    0.27452E-03   -0.35642E-04 17464   0.430E-02    0.545E-02
DAV:   9    -0.609729662543E+03   -0.43384E-05   -0.83375E-05 11500   0.242E-02
  12 F= -.60972966E+03 E0= -.60972966E+03  d E =-.402146E-02
 trial-energy change:   -0.004021  1 .order   -0.003860   -0.006034   -0.001687
 step:   1.3478(harm=  1.4381)  dis= 0.00658  next Energy=  -609.729921 (dE=-0.428E-02)
 bond charge predicted
       N       E                     dE             d eps       ncg     rms          rms(c)
DAV:   1    -0.609729925416E+03   -0.26721E-03   -0.12335E-01 12792   0.848E-01    0.154E-01
DAV:   2    -0.609729630704E+03    0.29471E-03   -0.86538E-03 13232   0.221E-01    0.157E-01
DAV:   3    -0.609730865175E+03   -0.12345E-02   -0.49803E-03 16052   0.137E-01    0.166E-01
DAV:   4    -0.609730026551E+03    0.83862E-03   -0.36212E-03 14784   0.938E-02    0.115E-01
DAV:   5    -0.609730111267E+03   -0.84716E-04   -0.16852E-03 14736   0.712E-02    0.701E-02
DAV:   6    -0.609729914597E+03    0.19667E-03   -0.64696E-04 15920   0.590E-02    0.710E-02
DAV:   7    -0.609729954518E+03   -0.39921E-04   -0.35147E-04 14256   0.488E-02    0.352E-02
DAV:   8    -0.609730060087E+03   -0.10557E-03   -0.10420E-04  9788   0.233E-02    0.179E-02
DAV:   9    -0.609730001651E+03    0.58436E-04   -0.10722E-05  7008   0.948E-03    0.140E-02
DAV:  10    -0.609730021042E+03   -0.19391E-04   -0.10276E-05  7224   0.103E-02    0.101E-02
DAV:  11    -0.609730009656E+03    0.11386E-04   -0.97230E-06  6928   0.100E-02    0.447E-03
DAV:  12    -0.609730006207E+03    0.34490E-05   -0.44421E-06  6560   0.662E-03
  13 F= -.60973001E+03 E0= -.60973001E+03  d E =-.436512E-02
 curvature:  -0.83 expect dE=-0.330E-02 dE for cont linesearch -0.789E-05
 trial: gam= 0.64567 g(F)=  0.296E-02 g(S)=  0.102E-02 ort = 0.259E-03 (trialstep = 0.107E+01)
 search vector abs. value=  0.726E-02
 bond charge predicted
       N       E                     dE             d eps       ncg     rms          rms(c)
DAV:   1    -0.609729146402E+03    0.86325E-03   -0.14248E+00 12720   0.267E+00    0.441E-01
DAV:   2    -0.609733895741E+03   -0.47493E-02   -0.78332E-02 13220   0.636E-01    0.382E-01
DAV:   3    -0.609738599003E+03   -0.47033E-02   -0.50879E-02 17128   0.363E-01    0.599E-01
DAV:   4    -0.609732589375E+03    0.60096E-02   -0.37683E-02 15260   0.284E-01    0.229E-01
DAV:   5    -0.609733922437E+03   -0.13331E-02   -0.53041E-03 16896   0.147E-01    0.164E-01
DAV:   6    -0.609733890715E+03    0.31722E-04   -0.54690E-03 16864   0.147E-01    0.204E-01
DAV:   7    -0.609732924685E+03    0.96603E-03   -0.45449E-03 15840   0.115E-01    0.645E-02
DAV:   8    -0.609733110346E+03   -0.18566E-03   -0.39423E-04 16708   0.504E-02    0.524E-02
DAV:   9    -0.609733048716E+03    0.61630E-04   -0.23880E-04 13128   0.295E-02    0.367E-02
DAV:  10    -0.609732989406E+03    0.59310E-04   -0.89397E-05  8684   0.206E-02    0.296E-02
DAV:  11    -0.609733096490E+03   -0.10708E-03   -0.43342E-05  8400   0.185E-02    0.205E-02
DAV:  12    -0.609733058189E+03    0.38301E-04   -0.45335E-05  7752   0.159E-02    0.112E-02
DAV:  13    -0.609733019688E+03    0.38500E-04   -0.10270E-05  6928   0.107E-02    0.552E-03
DAV:  14    -0.609733028627E+03   -0.89393E-05   -0.43128E-06  6408   0.630E-03
  14 F= -.60973303E+03 E0= -.60973303E+03  d E =-.302242E-02
 trial-energy change:   -0.003022  1 .order   -0.003106   -0.004433   -0.001778
 step:   2.2566(harm=  1.7852)  dis= 0.01263  next Energy=  -609.733902 (dE=-0.390E-02)
 bond charge predicted
       N       E                     dE             d eps       ncg     rms          rms(c)
DAV:   1    -0.609728456026E+03    0.45637E-02   -0.17570E+00 12744   0.297E+00    0.494E-01
DAV:   2    -0.609735290417E+03   -0.68344E-02   -0.10582E-01 13224   0.721E-01    0.494E-01
DAV:   3    -0.609739604857E+03   -0.43144E-02   -0.77870E-02 16496   0.431E-01    0.647E-01
DAV:   4    -0.609732778193E+03    0.68267E-02   -0.47512E-02 16008   0.319E-01    0.283E-01
DAV:   5    -0.609734333448E+03   -0.15553E-02   -0.90208E-03 16864   0.171E-01    0.215E-01
DAV:   6    -0.609734651804E+03   -0.31836E-03   -0.10428E-02 16456   0.188E-01    0.274E-01
DAV:   7    -0.609732949601E+03    0.17022E-02   -0.72813E-03 16148   0.150E-01    0.950E-02
DAV:   8    -0.609733449683E+03   -0.50008E-03   -0.10292E-03 17436   0.729E-02    0.613E-02
DAV:   9    -0.609733275738E+03    0.17394E-03   -0.27674E-04 15112   0.347E-02    0.453E-02
DAV:  10    -0.609733220255E+03    0.55482E-04   -0.11963E-04  9396   0.240E-02    0.360E-02
DAV:  11    -0.609733311359E+03   -0.91104E-04   -0.75663E-05  9360   0.202E-02    0.259E-02
DAV:  12    -0.609733236689E+03    0.74671E-04   -0.68471E-05  9096   0.212E-02    0.179E-02
DAV:  13    -0.609733228897E+03    0.77914E-05   -0.27860E-05  7608   0.140E-02
  15 F= -.60973323E+03 E0= -.60973323E+03  d E =-.322269E-02
 curvature:  -0.89 expect dE=-0.334E-02 dE for cont linesearch -0.162E-03
 ZBRENT: interpolating
 opt :   1.7710  next Energy=  -609.733508 (dE=-0.350E-02)
 bond charge predicted
       N       E                     dE             d eps       ncg     rms          rms(c)
DAV:   1    -0.609732583748E+03    0.65294E-03   -0.29420E-01 12720   0.122E+00    0.200E-01
DAV:   2    -0.609734098496E+03   -0.15147E-02   -0.17123E-02 13312   0.291E-01    0.207E-01
DAV:   3    -0.609733403183E+03    0.69531E-03   -0.11714E-02 16468   0.170E-01    0.250E-01
DAV:   4    -0.609733948874E+03   -0.54569E-03   -0.54555E-03 15512   0.122E-01    0.110E-01
DAV:   5    -0.609733559168E+03    0.38971E-03   -0.12263E-03 17112   0.714E-02    0.837E-02
DAV:   6    -0.609733499035E+03    0.60134E-04   -0.17717E-03 16744   0.795E-02    0.118E-01
DAV:   7    -0.609733517355E+03   -0.18320E-04   -0.61493E-04 15508   0.627E-02    0.338E-02
DAV:   8    -0.609733589540E+03   -0.72185E-04   -0.84937E-05 12600   0.236E-02    0.214E-02
DAV:   9    -0.609733527868E+03    0.61672E-04   -0.15830E-05  7844   0.119E-02    0.156E-02
DAV:  10    -0.609733561276E+03   -0.33408E-04   -0.11992E-05  7360   0.103E-02    0.134E-02
DAV:  11    -0.609733517844E+03    0.43432E-04   -0.10669E-05  7240   0.933E-03    0.104E-02
DAV:  12    -0.609733550795E+03   -0.32951E-04   -0.17681E-05  6864   0.810E-03    0.731E-03
DAV:  13    -0.609733541329E+03    0.94661E-05   -0.72866E-06  6520   0.594E-03
  16 F= -.60973354E+03 E0= -.60973354E+03  d E =-.353512E-02
 curvature:  -1.53 expect dE=-0.316E-02 dE for cont linesearch -0.106E-05
 trial: gam= 0.60930 g(F)=  0.127E-02 g(S)=  0.792E-03 ort =-0.707E-04 (trialstep = 0.121E+01)
 search vector abs. value=  0.467E-02
 bond charge predicted
       N       E                     dE             d eps       ncg     rms          rms(c)
DAV:   1    -0.609734511000E+03   -0.96021E-03   -0.12186E+00 12948   0.249E+00    0.557E-01
DAV:   2    -0.609735623052E+03   -0.11121E-02   -0.80484E-02 13360   0.665E-01    0.533E-01
DAV:   3    -0.609742986215E+03   -0.73632E-02   -0.83768E-02 15432   0.478E-01    0.730E-01
DAV:   4    -0.609736303131E+03    0.66831E-02   -0.66033E-02 15672   0.374E-01    0.345E-01
DAV:   5    -0.609734306521E+03    0.19966E-02   -0.91502E-03 16524   0.197E-01    0.172E-01
DAV:   6    -0.609735315642E+03   -0.10091E-02   -0.13217E-02 17328   0.189E-01    0.300E-01
DAV:   7    -0.609734664175E+03    0.65147E-03   -0.11539E-02 16088   0.157E-01    0.129E-01
DAV:   8    -0.609734528276E+03    0.13590E-03   -0.92191E-04 17324   0.693E-02    0.622E-02
DAV:   9    -0.609734451617E+03    0.76660E-04   -0.16531E-04 14800   0.291E-02    0.496E-02
DAV:  10    -0.609734485538E+03   -0.33921E-04   -0.19418E-04 10924   0.272E-02    0.496E-02
DAV:  11    -0.609734528366E+03   -0.42829E-04   -0.14822E-04 10936   0.253E-02    0.246E-02
DAV:  12    -0.609734457093E+03    0.71273E-04   -0.62121E-05  9984   0.188E-02    0.140E-02
DAV:  13    -0.609734458025E+03   -0.93238E-06   -0.21502E-05  6916   0.121E-02
  17 F= -.60973446E+03 E0= -.60973446E+03  d E =-.916696E-03
 trial-energy change:   -0.000917  1 .order   -0.001061   -0.002445    0.000323
 step:   1.0180(harm=  1.0685)  dis= 0.00464  next Energy=  -609.734484 (dE=-0.943E-03)
 bond charge predicted
       N       E                     dE             d eps       ncg     rms          rms(c)
DAV:   1    -0.609734355719E+03    0.10137E-03   -0.30726E-02 13024   0.395E-01    0.902E-02
DAV:   2    -0.609735026224E+03   -0.67051E-03   -0.20754E-03 13456   0.104E-01    0.907E-02
DAV:   3    -0.609734114872E+03    0.91135E-03   -0.24116E-03 15044   0.779E-02    0.114E-01
DAV:   4    -0.609734367920E+03   -0.25305E-03   -0.12634E-03 14688   0.583E-02    0.618E-02
DAV:   5    -0.609734483358E+03   -0.11544E-03   -0.34723E-04 11960   0.383E-02    0.369E-02
DAV:   6    -0.609734536611E+03   -0.53252E-04   -0.34058E-04 10780   0.304E-02    0.390E-02
DAV:   7    -0.609734465126E+03    0.71484E-04   -0.15850E-04  9520   0.242E-02    0.269E-02
DAV:   8    -0.609734506684E+03   -0.41558E-04   -0.45867E-05  7864   0.139E-02    0.879E-03
DAV:   9    -0.609734496670E+03    0.10014E-04   -0.57520E-06  6844   0.707E-03    0.732E-03
DAV:  10    -0.609734513887E+03   -0.17217E-04   -0.55139E-06  6460   0.647E-03    0.622E-03
DAV:  11    -0.609734512565E+03    0.13219E-05   -0.63660E-06  6364   0.605E-03
  18 F= -.60973451E+03 E0= -.60973451E+03  d E =-.971236E-03
 curvature:  -1.08 expect dE=-0.793E-03 dE for cont linesearch -0.560E-07
 trial: gam= 0.31759 g(F)=  0.491E-03 g(S)=  0.245E-03 ort = 0.156E-04 (trialstep = 0.117E+01)
 search vector abs. value=  0.122E-02
 bond charge predicted
       N       E                     dE             d eps       ncg     rms          rms(c)
DAV:   1    -0.609734489326E+03    0.24561E-04   -0.35748E-01 12312   0.126E+00    0.257E-01
DAV:   2    -0.609734863083E+03   -0.37376E-03   -0.14342E-02 13404   0.281E-01    0.181E-01
DAV:   3    -0.609737036741E+03   -0.21737E-02   -0.15496E-02 16376   0.197E-01    0.365E-01
DAV:   4    -0.609734250419E+03    0.27863E-02   -0.15243E-02 15880   0.174E-01    0.130E-01
DAV:   5    -0.609734934853E+03   -0.68443E-03   -0.23826E-03 17200   0.974E-02    0.107E-01
DAV:   6    -0.609735091240E+03   -0.15639E-03   -0.22627E-03 16800   0.878E-02    0.120E-01
DAV:   7    -0.609734666857E+03    0.42438E-03   -0.12629E-03 15288   0.625E-02    0.397E-02
DAV:   8    -0.609734676438E+03   -0.95808E-05   -0.96069E-05 12168   0.221E-02
  19 F= -.60973468E+03 E0= -.60973468E+03  d E =-.163873E-03
 trial-energy change:   -0.000164  1 .order   -0.000511   -0.000869   -0.000154
 step:   1.4230(harm=  1.4230)  dis= 0.00265  next Energy=  -609.735040 (dE=-0.528E-03)
 bond charge predicted
       N       E                     dE             d eps       ncg     rms          rms(c)
DAV:   1    -0.609734615740E+03    0.51117E-04   -0.16464E-02 12224   0.271E-01    0.541E-02
DAV:   2    -0.609734585311E+03    0.30429E-04   -0.68670E-04 13664   0.635E-02    0.473E-02
DAV:   3    -0.609734851517E+03   -0.26621E-03   -0.57142E-04 13416   0.453E-02    0.611E-02
DAV:   4    -0.609734522554E+03    0.32896E-03   -0.52893E-04 10784   0.345E-02    0.377E-02
DAV:   5    -0.609734665121E+03   -0.14257E-03   -0.19833E-04  9424   0.276E-02    0.264E-02
DAV:   6    -0.609734649349E+03    0.15772E-04   -0.15424E-04  9372   0.222E-02    0.318E-02
DAV:   7    -0.609734665911E+03   -0.16562E-04   -0.11210E-04  8008   0.177E-02    0.141E-02
DAV:   8    -0.609734635808E+03    0.30103E-04   -0.17015E-05  6968   0.103E-02    0.784E-03
DAV:   9    -0.609734631942E+03    0.38664E-05   -0.43959E-06  6412   0.582E-03
  20 F= -.60973463E+03 E0= -.60973463E+03  d E =-.119376E-03
 curvature:  -1.17 expect dE=-0.549E-03 dE for cont linesearch -0.945E-06
 trial: gam= 0.69673 g(F)=  0.373E-03 g(S)=  0.963E-04 ort =-0.314E-04 (trialstep = 0.122E+01)
 search vector abs. value=  0.102E-02
 bond charge predicted
       N       E                     dE             d eps       ncg     rms          rms(c)
DAV:   1    -0.609734341300E+03    0.29451E-03   -0.31405E-01 12624   0.122E+00    0.149E-01
DAV:   2    -0.609734395933E+03   -0.54632E-04   -0.12574E-02 12688   0.260E-01    0.157E-01
DAV:   3    -0.609735887904E+03   -0.14920E-02   -0.58908E-03 16912   0.142E-01    0.163E-01
DAV:   4    -0.609735045017E+03    0.84289E-03   -0.29843E-03 16712   0.909E-02    0.867E-02
DAV:   5    -0.609735013010E+03    0.32007E-04   -0.89769E-04 15560   0.518E-02    0.777E-02
DAV:   6    -0.609734676509E+03    0.33650E-03   -0.94351E-04 14908   0.526E-02    0.675E-02
DAV:   7    -0.609734998267E+03   -0.32176E-03   -0.32328E-04 13664   0.361E-02    0.232E-02
DAV:   8    -0.609734871933E+03    0.12633E-03   -0.48461E-05  9428   0.192E-02    0.179E-02
DAV:   9    -0.609734889919E+03   -0.17986E-04   -0.18831E-05  7500   0.132E-02    0.108E-02
DAV:  10    -0.609734917874E+03   -0.27955E-04   -0.10326E-05  6752   0.915E-03    0.986E-03
DAV:  11    -0.609734904936E+03    0.12938E-04   -0.10894E-05  6740   0.905E-03    0.670E-03
DAV:  12    -0.609734903082E+03    0.18538E-05   -0.61699E-06  6628   0.698E-03
  21 F= -.60973490E+03 E0= -.60973490E+03  d E =-.271141E-03
 trial-energy change:   -0.000271  1 .order   -0.000360   -0.000547   -0.000173
 step:   1.7851(harm=  1.7851)  dis= 0.00275  next Energy=  -609.735031 (dE=-0.400E-03)
 bond charge predicted
       N       E                     dE             d eps       ncg     rms          rms(c)
DAV:   1    -0.609734837517E+03    0.67419E-04   -0.66796E-02 12552   0.561E-01    0.678E-02
DAV:   2    -0.609734593147E+03    0.24437E-03   -0.26627E-03 12672   0.120E-01    0.728E-02
DAV:   3    -0.609735234076E+03   -0.64093E-03   -0.12037E-03 16244   0.688E-02    0.746E-02
DAV:   4    -0.609734923085E+03    0.31099E-03   -0.65295E-04 13600   0.417E-02    0.395E-02
DAV:   5    -0.609734933220E+03   -0.10135E-04   -0.21575E-04 10392   0.255E-02    0.381E-02
DAV:   6    -0.609734785128E+03    0.14809E-03   -0.20017E-04  9768   0.250E-02    0.291E-02
DAV:   7    -0.609734955545E+03   -0.17042E-03   -0.51718E-05  8584   0.181E-02    0.106E-02
DAV:   8    -0.609734897145E+03    0.58400E-04   -0.13346E-05  7000   0.109E-02    0.702E-03
DAV:   9    -0.609734894647E+03    0.24977E-05   -0.61212E-06  6456   0.715E-03
  22 F= -.60973489E+03 E0= -.60973489E+03  d E =-.262705E-03
 curvature:  -2.03 expect dE=-0.637E-03 dE for cont linesearch -0.787E-06
 trial: gam= 0.50506 g(F)=  0.301E-03 g(S)=  0.130E-04 ort = 0.199E-04 (trialstep = 0.133E+01)
 search vector abs. value=  0.593E-03
 bond charge predicted
       N       E                     dE             d eps       ncg     rms          rms(c)
DAV:   1    -0.609734384120E+03    0.51302E-03   -0.21287E-01 12760   0.119E+00    0.103E-01
DAV:   2    -0.609735392834E+03   -0.10087E-02   -0.13253E-02 13148   0.241E-01    0.114E-01
DAV:   3    -0.609735685013E+03   -0.29218E-03   -0.28188E-03 17072   0.104E-01    0.995E-02
DAV:   4    -0.609735414613E+03    0.27040E-03   -0.10342E-03 16080   0.559E-02    0.466E-02
DAV:   5    -0.609735399011E+03    0.15601E-04   -0.65078E-04 14284   0.452E-02    0.859E-02
DAV:   6    -0.609735719047E+03   -0.32004E-03   -0.84387E-04 13732   0.459E-02    0.431E-02
DAV:   7    -0.609735363671E+03    0.35538E-03   -0.15695E-04 10504   0.252E-02    0.179E-02
DAV:   8    -0.609735408266E+03   -0.44595E-04   -0.22450E-05  8088   0.132E-02    0.929E-03
DAV:   9    -0.609735415193E+03   -0.69263E-05   -0.89027E-06  6736   0.840E-03
  23 F= -.60973542E+03 E0= -.60973542E+03  d E =-.520545E-03
 trial-energy change:   -0.000521  1 .order   -0.000211   -0.000432    0.000010
 step:   1.3287(harm=  1.3053)  dis= 0.00169  next Energy=  -609.735415 (dE=-0.521E-03)
 bond charge predicted
       N       E                     dE             d eps       ncg     rms          rms(c)
DAV:   1    -0.609735405318E+03    0.29484E-05   -0.73603E-06  6640   0.797E-03    0.480E-03
DAV:   2    -0.609735420786E+03   -0.15468E-04   -0.11427E-05  6720   0.957E-03    0.930E-03
DAV:   3    -0.609735414730E+03    0.60565E-05   -0.10670E-05  6596   0.704E-03
  24 F= -.60973541E+03 E0= -.60973541E+03  d E =-.520082E-03
 curvature:  -0.42 expect dE=-0.369E-04 dE for cont linesearch -0.205E-09
 trial: gam= 0.32896 g(F)=  0.861E-04 g(S)=  0.225E-05 ort =-0.540E-06 (trialstep = 0.133E+01)
 search vector abs. value=  0.152E-03
 bond charge predicted
       N       E                     dE             d eps       ncg     rms          rms(c)
DAV:   1    -0.609735209131E+03    0.21165E-03   -0.53361E-02 13116   0.580E-01    0.591E-02
DAV:   2    -0.609735518833E+03   -0.30970E-03   -0.36921E-03 13072   0.129E-01    0.839E-02
DAV:   3    -0.609735540733E+03   -0.21899E-04   -0.97139E-04 15196   0.644E-02    0.495E-02
DAV:   4    -0.609735462291E+03    0.78442E-04   -0.31501E-04 13664   0.300E-02    0.311E-02
DAV:   5    -0.609735413092E+03    0.49199E-04   -0.18656E-04  9224   0.236E-02    0.366E-02
DAV:   6    -0.609735666544E+03   -0.25345E-03   -0.19791E-04  9168   0.240E-02    0.326E-02
DAV:   7    -0.609735431549E+03    0.23499E-03   -0.78377E-05  8572   0.194E-02    0.124E-02
DAV:   8    -0.609735462049E+03   -0.30499E-04   -0.16074E-05  7112   0.114E-02    0.673E-03
DAV:   9    -0.609735475850E+03   -0.13801E-04   -0.67424E-06  6504   0.741E-03    0.518E-03
DAV:  10    -0.609735463283E+03    0.12567E-04   -0.34552E-06  6220   0.514E-03    0.359E-03
DAV:  11    -0.609735457938E+03    0.53451E-05   -0.17799E-06  6092   0.406E-03
  25 F= -.60973546E+03 E0= -.60973546E+03  d E =-.432078E-04
 trial-energy change:   -0.000043  1 .order   -0.000062   -0.000118   -0.000006
 step:   1.4056(harm=  1.4056)  dis= 0.00105  next Energy=  -609.735477 (dE=-0.620E-04)
 reached required accuracy - stopping structural energy minimisation
 writing wavefunctions
