  10  10   0   0
  0.1278404E+02  0.5654502E-09  0.5654502E-09  0.5654502E-09  0.5000000E-15
  1.000000000000000E-004
  CAR 
 unknown system                          
     14.39042524    -54.59033752  301      6.98945649      1.00000000
    -54.590  0.0000E+00  0.0000E+00
    -54.360  0.0000E+00  0.0000E+00
    -54.130  0.0000E+00  0.0000E+00
    -53.901  0.0000E+00  0.0000E+00
    -53.671  0.0000E+00  0.0000E+00
    -53.441  0.0000E+00  0.0000E+00
    -53.211  0.0000E+00  0.0000E+00
    -52.981  0.0000E+00  0.0000E+00
    -52.751  0.0000E+00  0.0000E+00
    -52.521  0.0000E+00  0.0000E+00
    -52.291  0.0000E+00  0.0000E+00
    -52.061  0.0000E+00  0.0000E+00
    -51.831  0.0000E+00  0.0000E+00
    -51.601  0.0000E+00  0.0000E+00
    -51.371  0.0000E+00  0.2000E+01
    -51.141  0.0000E+00  0.2000E+01
    -50.911  0.0000E+00  0.2000E+01
    -50.681  0.0000E+00  0.2000E+01
    -50.451  0.0000E+00  0.2000E+01
    -50.222  0.0000E+00  0.2000E+01
    -49.992  0.0000E+00  0.2000E+01
    -49.762  0.0000E+00  0.4000E+01
    -49.532  0.0000E+00  0.4000E+01
    -49.302  0.0000E+00  0.4000E+01
    -49.072  0.0000E+00  0.4000E+01
    -48.842  0.0000E+00  0.4000E+01
    -48.612  0.0000E+00  0.4000E+01
    -48.382  0.0000E+00  0.4000E+01
    -48.152  0.0000E+00  0.4000E+01
    -47.922  0.0000E+00  0.4000E+01
    -47.692  0.0000E+00  0.4000E+01
    -47.462  0.0000E+00  0.4000E+01
    -47.232  0.0000E+00  0.4000E+01
    -47.002  0.0000E+00  0.4000E+01
    -46.773  0.0000E+00  0.4000E+01
    -46.543  0.0000E+00  0.4000E+01
    -46.313  0.0000E+00  0.4000E+01
    -46.083  0.0000E+00  0.4000E+01
    -45.853  0.0000E+00  0.4000E+01
    -45.623  0.0000E+00  0.4000E+01
    -45.393  0.0000E+00  0.4000E+01
    -45.163  0.0000E+00  0.4000E+01
    -44.933  0.0000E+00  0.4000E+01
    -44.703  0.0000E+00  0.4000E+01
    -44.473  0.0000E+00  0.4000E+01
    -44.243  0.0000E+00  0.4000E+01
    -44.013  0.0000E+00  0.4000E+01
    -43.783  0.0000E+00  0.4000E+01
    -43.553  0.0000E+00  0.4000E+01
    -43.323  0.0000E+00  0.4000E+01
    -43.094  0.0000E+00  0.4000E+01
    -42.864  0.0000E+00  0.4000E+01
    -42.634  0.0000E+00  0.4000E+01
    -42.404  0.0000E+00  0.4000E+01
    -42.174  0.0000E+00  0.4000E+01
    -41.944  0.0000E+00  0.4000E+01
    -41.714  0.0000E+00  0.4000E+01
    -41.484  0.0000E+00  0.4000E+01
    -41.254  0.0000E+00  0.4000E+01
    -41.024  0.0000E+00  0.4000E+01
    -40.794  0.0000E+00  0.4000E+01
    -40.564  0.0000E+00  0.4000E+01
    -40.334  0.0000E+00  0.4000E+01
    -40.104  0.0000E+00  0.4000E+01
    -39.874  0.0000E+00  0.4000E+01
    -39.645  0.0000E+00  0.4000E+01
    -39.415  0.0000E+00  0.4000E+01
    -39.185  0.0000E+00  0.4000E+01
    -38.955  0.0000E+00  0.4000E+01
    -38.725  0.0000E+00  0.4000E+01
    -38.495  0.0000E+00  0.4000E+01
    -38.265  0.0000E+00  0.4000E+01
    -38.035  0.0000E+00  0.4000E+01
    -37.805  0.0000E+00  0.4000E+01
    -37.575  0.0000E+00  0.4000E+01
    -37.345  0.0000E+00  0.4000E+01
    -37.115  0.0000E+00  0.4000E+01
    -36.885  0.0000E+00  0.4000E+01
    -36.655  0.0000E+00  0.4000E+01
    -36.425  0.0000E+00  0.4000E+01
    -36.195  0.0000E+00  0.4000E+01
    -35.966  0.0000E+00  0.4000E+01
    -35.736  0.0000E+00  0.4000E+01
    -35.506  0.0000E+00  0.4000E+01
    -35.276  0.0000E+00  0.4000E+01
    -35.046  0.0000E+00  0.4000E+01
    -34.816  0.0000E+00  0.4000E+01
    -34.586  0.0000E+00  0.4000E+01
    -34.356  0.0000E+00  0.4000E+01
    -34.126  0.0000E+00  0.4000E+01
    -33.896  0.0000E+00  0.4000E+01
    -33.666  0.0000E+00  0.4000E+01
    -33.436  0.0000E+00  0.4000E+01
    -33.206  0.0000E+00  0.4000E+01
    -32.976  0.0000E+00  0.4000E+01
    -32.746  0.0000E+00  0.4000E+01
    -32.516  0.0000E+00  0.4000E+01
    -32.287  0.0000E+00  0.4000E+01
    -32.057  0.0000E+00  0.4000E+01
    -31.827  0.0000E+00  0.4000E+01
    -31.597  0.0000E+00  0.4000E+01
    -31.367  0.0000E+00  0.4000E+01
    -31.137  0.0000E+00  0.4000E+01
    -30.907  0.0000E+00  0.4000E+01
    -30.677  0.0000E+00  0.4000E+01
    -30.447  0.0000E+00  0.4000E+01
    -30.217  0.0000E+00  0.4000E+01
    -29.987  0.0000E+00  0.4000E+01
    -29.757  0.0000E+00  0.4000E+01
    -29.527  0.0000E+00  0.4000E+01
    -29.297  0.0000E+00  0.4000E+01
    -29.067  0.0000E+00  0.4000E+01
    -28.838  0.0000E+00  0.8000E+01
    -28.608  0.0000E+00  0.8000E+01
    -28.378  0.0000E+00  0.8000E+01
    -28.148  0.0000E+00  0.8000E+01
    -27.918  0.0000E+00  0.8000E+01
    -27.688  0.0000E+00  0.1400E+02
    -27.458  0.0000E+00  0.1400E+02
    -27.228  0.0000E+00  0.1400E+02
    -26.998  0.0000E+00  0.1400E+02
    -26.768  0.0000E+00  0.1400E+02
    -26.538  0.0000E+00  0.1400E+02
    -26.308  0.0000E+00  0.1400E+02
    -26.078  0.0000E+00  0.2000E+02
    -25.848  0.0000E+00  0.2000E+02
    -25.618  0.0000E+00  0.2000E+02
    -25.388  0.0000E+00  0.2000E+02
    -25.159  0.0000E+00  0.2000E+02
    -24.929  0.0000E+00  0.2000E+02
    -24.699  0.0000E+00  0.2000E+02
    -24.469  0.0000E+00  0.2000E+02
    -24.239  0.0000E+00  0.2000E+02
    -24.009  0.0000E+00  0.2000E+02
    -23.779  0.0000E+00  0.2000E+02
    -23.549  0.0000E+00  0.2000E+02
    -23.319  0.0000E+00  0.2000E+02
    -23.089  0.0000E+00  0.2000E+02
    -22.859  0.0000E+00  0.2000E+02
    -22.629  0.0000E+00  0.2000E+02
    -22.399  0.0000E+00  0.2000E+02
    -22.169  0.0000E+00  0.2000E+02
    -21.939  0.0000E+00  0.2000E+02
    -21.710  0.0000E+00  0.2000E+02
    -21.480  0.0000E+00  0.2000E+02
    -21.250  0.0000E+00  0.2000E+02
    -21.020  0.0000E+00  0.2000E+02
    -20.790  0.0000E+00  0.2000E+02
    -20.560  0.0000E+00  0.2000E+02
    -20.330  0.0000E+00  0.2000E+02
    -20.100  0.0000E+00  0.2000E+02
    -19.870  0.0000E+00  0.2000E+02
    -19.640  0.0000E+00  0.2000E+02
    -19.410  0.0000E+00  0.2000E+02
    -19.180  0.0000E+00  0.2000E+02
    -18.950  0.0000E+00  0.2000E+02
    -18.720  0.0000E+00  0.2000E+02
    -18.490  0.0000E+00  0.2000E+02
    -18.260  0.0000E+00  0.2000E+02
    -18.031  0.0000E+00  0.2000E+02
    -17.801  0.0000E+00  0.2000E+02
    -17.571  0.0000E+00  0.2000E+02
    -17.341  0.0000E+00  0.2000E+02
    -17.111  0.0000E+00  0.2000E+02
    -16.881  0.0000E+00  0.2000E+02
    -16.651  0.0000E+00  0.2000E+02
    -16.421  0.0000E+00  0.2000E+02
    -16.191  0.0000E+00  0.2000E+02
    -15.961  0.0000E+00  0.2000E+02
    -15.731  0.0000E+00  0.2000E+02
    -15.501  0.0000E+00  0.2000E+02
    -15.271  0.0000E+00  0.2000E+02
    -15.041  0.0000E+00  0.2000E+02
    -14.811  0.0000E+00  0.2000E+02
    -14.581  0.0000E+00  0.2000E+02
    -14.352  0.0000E+00  0.2000E+02
    -14.122  0.0000E+00  0.2000E+02
    -13.892  0.0000E+00  0.2000E+02
    -13.662  0.0000E+00  0.2000E+02
    -13.432  0.0000E+00  0.2000E+02
    -13.202  0.3351E+01  0.2022E+02
    -12.972  0.2167E+01  0.2193E+02
    -12.742  0.7046E+01  0.2281E+02
    -12.512  0.2023E+01  0.2355E+02
    -12.282  0.2462E+01  0.2610E+02
    -12.052  0.1087E+02  0.2938E+02
    -11.822  0.6968E+00  0.3199E+02
    -11.592  0.0000E+00  0.3200E+02
    -11.362  0.0000E+00  0.3200E+02
    -11.132  0.0000E+00  0.3200E+02
    -10.903  0.3588E+02  0.3382E+02
    -10.673  0.1859E+02  0.3961E+02
    -10.443  0.2707E+01  0.4397E+02
    -10.213  0.0000E+00  0.4400E+02
     -9.983  0.0000E+00  0.4400E+02
     -9.753  0.0000E+00  0.4400E+02
     -9.523  0.0000E+00  0.4400E+02
     -9.293  0.0000E+00  0.4400E+02
     -9.063  0.0000E+00  0.4400E+02
     -8.833  0.0000E+00  0.4400E+02
     -8.603  0.0000E+00  0.4400E+02
     -8.373  0.0000E+00  0.4400E+02
     -8.143  0.0000E+00  0.4400E+02
     -7.913  0.0000E+00  0.4400E+02
     -7.683  0.0000E+00  0.4400E+02
     -7.453  0.0000E+00  0.4400E+02
     -7.224  0.0000E+00  0.4400E+02
     -6.994  0.0000E+00  0.4400E+02
     -6.764  0.0000E+00  0.4400E+02
     -6.534  0.0000E+00  0.4400E+02
     -6.304  0.0000E+00  0.4400E+02
     -6.074  0.0000E+00  0.4400E+02
     -5.844  0.0000E+00  0.4400E+02
     -5.614  0.0000E+00  0.4400E+02
     -5.384  0.0000E+00  0.4400E+02
     -5.154  0.0000E+00  0.4400E+02
     -4.924  0.0000E+00  0.4400E+02
     -4.694  0.0000E+00  0.4400E+02
     -4.464  0.0000E+00  0.4400E+02
     -4.234  0.0000E+00  0.4400E+02
     -4.004  0.0000E+00  0.4400E+02
     -3.775  0.0000E+00  0.4400E+02
     -3.545  0.0000E+00  0.4400E+02
     -3.315  0.0000E+00  0.4400E+02
     -3.085  0.0000E+00  0.4400E+02
     -2.855  0.0000E+00  0.4400E+02
     -2.625  0.0000E+00  0.4400E+02
     -2.395  0.0000E+00  0.4400E+02
     -2.165  0.0000E+00  0.4400E+02
     -1.935  0.0000E+00  0.4400E+02
     -1.705  0.0000E+00  0.4400E+02
     -1.475  0.0000E+00  0.4400E+02
     -1.245  0.0000E+00  0.4400E+02
     -1.015  0.0000E+00  0.4400E+02
     -0.785  0.0000E+00  0.4400E+02
     -0.555  0.3385E+00  0.4401E+02
     -0.325  0.4172E+01  0.4474E+02
     -0.096  0.9590E+01  0.4651E+02
      0.134  0.8827E+01  0.4878E+02
      0.364  0.1007E+02  0.5093E+02
      0.594  0.6231E+01  0.5253E+02
      0.824  0.7891E+01  0.5426E+02
      1.054  0.9195E+01  0.5593E+02
      1.284  0.4878E+01  0.5771E+02
      1.514  0.2186E+02  0.6131E+02
      1.744  0.4727E+01  0.6330E+02
      1.974  0.5141E+01  0.6436E+02
      2.204  0.5737E+01  0.6557E+02
      2.434  0.6831E+01  0.6727E+02
      2.664  0.6029E+01  0.6846E+02
      2.894  0.1143E+02  0.7096E+02
      3.124  0.1129E+02  0.7403E+02
      3.354  0.8460E+01  0.7678E+02
      3.583  0.8040E+01  0.7816E+02
      3.813  0.5038E+01  0.7937E+02
      4.043  0.0000E+00  0.8000E+02
      4.273  0.0000E+00  0.8000E+02
      4.503  0.0000E+00  0.8000E+02
      4.733  0.0000E+00  0.8000E+02
      4.963  0.0000E+00  0.8000E+02
      5.193  0.0000E+00  0.8000E+02
      5.423  0.0000E+00  0.8000E+02
      5.653  0.0000E+00  0.8000E+02
      5.883  0.0000E+00  0.8000E+02
      6.113  0.0000E+00  0.8000E+02
      6.343  0.7153E-01  0.8000E+02
      6.573  0.1285E+01  0.8014E+02
      6.803  0.2283E+01  0.8058E+02
      7.032  0.2323E+01  0.8110E+02
      7.262  0.2990E+01  0.8170E+02
      7.492  0.4378E+01  0.8258E+02
      7.722  0.3769E+01  0.8327E+02
      7.952  0.4614E+01  0.8427E+02
      8.182  0.6577E+01  0.8554E+02
      8.412  0.5754E+01  0.8705E+02
      8.642  0.6939E+01  0.8949E+02
      8.872  0.4255E+01  0.9081E+02
      9.102  0.2959E+01  0.9171E+02
      9.332  0.2168E-01  0.9200E+02
      9.562  0.1948E+01  0.9220E+02
      9.792  0.2333E+01  0.9279E+02
     10.022  0.3322E+01  0.9344E+02
     10.252  0.3806E+01  0.9421E+02
     10.482  0.3333E+01  0.9501E+02
     10.711  0.2359E+01  0.9568E+02
     10.941  0.3315E+00  0.9597E+02
     11.171  0.2357E-01  0.9600E+02
     11.401  0.0000E+00  0.9600E+02
     11.631  0.0000E+00  0.9600E+02
     11.861  0.0000E+00  0.9600E+02
     12.091  0.0000E+00  0.9600E+02
     12.321  0.0000E+00  0.9600E+02
     12.551  0.0000E+00  0.9600E+02
     12.781  0.0000E+00  0.9600E+02
     13.011  0.0000E+00  0.9600E+02
     13.241  0.0000E+00  0.9600E+02
     13.471  0.0000E+00  0.9600E+02
     13.701  0.0000E+00  0.9600E+02
     13.931  0.0000E+00  0.9600E+02
     14.160  0.0000E+00  0.9600E+02
     14.390  0.0000E+00  0.9600E+02
