       N       E                     dE             d eps       ncg     rms          rms(c)
DAV:   1     0.927982027331E+03    0.92798E+03   -0.42421E+04  2880   0.174E+03
DAV:   2     0.171280945625E+02   -0.91085E+03   -0.87785E+03  3480   0.545E+02
DAV:   3    -0.898551425227E+02   -0.10698E+03   -0.10600E+03  3952   0.178E+02
DAV:   4    -0.971981035214E+02   -0.73430E+01   -0.73000E+01  5008   0.458E+01
DAV:   5    -0.975033458292E+02   -0.30524E+00   -0.30302E+00  4040   0.635E+00    0.334E+01
DAV:   6    -0.812346622896E+02    0.16269E+02   -0.10518E+02  4120   0.612E+01    0.216E+01
DAV:   7    -0.813444552513E+02   -0.10979E+00   -0.19805E+01  4104   0.246E+01    0.140E+01
DAV:   8    -0.811503509246E+02    0.19410E+00   -0.55687E+00  4152   0.167E+01    0.733E+00
DAV:   9    -0.810630362336E+02    0.87315E-01   -0.10081E+00  4264   0.550E+00    0.103E+00
DAV:  10    -0.810611991227E+02    0.18371E-02   -0.10844E-01  4768   0.160E+00    0.603E-01
DAV:  11    -0.810630442297E+02   -0.18451E-02   -0.13425E-02  4232   0.820E-01    0.196E-01
DAV:  12    -0.810630046161E+02    0.39614E-04   -0.19055E-03  4088   0.318E-01    0.801E-02
DAV:  13    -0.810630293315E+02   -0.24715E-04   -0.41401E-04  4136   0.118E-01    0.319E-02
DAV:  14    -0.810630597561E+02   -0.30425E-04   -0.76822E-05  3784   0.527E-02    0.158E-02
DAV:  15    -0.810630604196E+02   -0.66355E-06   -0.11240E-05  2288   0.241E-02
   1 F= -.81063060E+02 E0= -.81063060E+02  d E =-.810631E+02
       N       E                     dE             d eps       ncg     rms          rms(c)
DAV:   1    -0.859557609565E+02   -0.48927E+01   -0.16465E+02  3488   0.922E+01    0.188E+01
DAV:   2    -0.823869046733E+02    0.35689E+01   -0.26179E+01  3952   0.304E+01    0.798E+00
DAV:   3    -0.814080906349E+02    0.97881E+00   -0.99405E+00  4432   0.156E+01    0.633E+00
DAV:   4    -0.809575960909E+02    0.45049E+00   -0.40306E+00  4400   0.106E+01    0.355E+00
DAV:   5    -0.809612647134E+02   -0.36686E-02   -0.36407E-01  4632   0.346E+00    0.274E+00
DAV:   6    -0.809969535618E+02   -0.35689E-01   -0.10904E-01  5296   0.130E+00    0.163E+00
DAV:   7    -0.810114615071E+02   -0.14508E-01   -0.10183E-01  4480   0.129E+00    0.472E-01
DAV:   8    -0.810100323405E+02    0.14292E-02   -0.15768E-02  4528   0.608E-01    0.259E-01
DAV:   9    -0.810104409292E+02   -0.40859E-03   -0.12949E-03  3944   0.202E-01    0.987E-02
DAV:  10    -0.810104519262E+02   -0.10997E-04   -0.16972E-04  4488   0.793E-02    0.685E-02
DAV:  11    -0.810105205528E+02   -0.68627E-04   -0.20936E-04  4160   0.935E-02    0.258E-02
DAV:  12    -0.810105218210E+02   -0.12682E-05   -0.29497E-05  2952   0.295E-02
   2 F= -.81010522E+02 E0= -.81010522E+02  d E =0.525386E-01
       N       E                     dE             d eps       ncg     rms          rms(c)
DAV:   1    -0.827597658247E+02   -0.17492E+01   -0.49229E+01  3464   0.490E+01    0.105E+01
DAV:   2    -0.815094462630E+02    0.12503E+01   -0.58660E+00  3816   0.146E+01    0.382E+00
DAV:   3    -0.812895323866E+02    0.21991E+00   -0.21501E+00  4288   0.723E+00    0.235E+00
DAV:   4    -0.812057095938E+02    0.83823E-01   -0.77030E-01  4624   0.468E+00    0.109E+00
DAV:   5    -0.812125689879E+02   -0.68594E-02   -0.79295E-02  4496   0.143E+00    0.807E-01
DAV:   6    -0.812214316733E+02   -0.88627E-02   -0.16934E-02  5264   0.476E-01    0.639E-01
DAV:   7    -0.812287723048E+02   -0.73406E-02   -0.18003E-02  4496   0.600E-01    0.139E-01
DAV:   8    -0.812289056085E+02   -0.13330E-03   -0.38611E-03  4560   0.242E-01    0.493E-02
DAV:   9    -0.812289816822E+02   -0.76074E-04   -0.27712E-04  4456   0.742E-02    0.231E-02
DAV:  10    -0.812289851619E+02   -0.34797E-05   -0.20612E-05  2784   0.210E-02
   3 F= -.81228985E+02 E0= -.81228985E+02  d E =-.165925E+00
       N       E                     dE             d eps       ncg     rms          rms(c)
DAV:   1    -0.812292159231E+02   -0.23424E-03   -0.68273E-03  3656   0.588E-01    0.122E-01
DAV:   2    -0.812290767515E+02    0.13917E-03   -0.85385E-04  4008   0.179E-01    0.476E-02
DAV:   3    -0.812289997521E+02    0.76999E-04   -0.40114E-04  4232   0.971E-02    0.359E-02
DAV:   4    -0.812290067070E+02   -0.69549E-05   -0.14837E-04  3680   0.658E-02    0.152E-02
DAV:   5    -0.812290081075E+02   -0.14005E-05   -0.10640E-05  2392   0.192E-02
   4 F= -.81229008E+02 E0= -.81229008E+02  d E =-.165948E+00
       N       E                     dE             d eps       ncg     rms          rms(c)
DAV:   1    -0.812310791899E+02   -0.20725E-02   -0.53538E-01  2912   0.390E+00    0.336E-01
DAV:   2    -0.812307200369E+02    0.35915E-03   -0.14689E-02  4032   0.715E-01    0.194E-01
DAV:   3    -0.812300836697E+02    0.63637E-03   -0.19365E-03  4168   0.296E-01    0.631E-02
DAV:   4    -0.812300447551E+02    0.38915E-04   -0.30250E-04  4408   0.975E-02    0.336E-02
DAV:   5    -0.812300310262E+02    0.13729E-04   -0.39339E-05  3160   0.314E-02    0.210E-02
DAV:   6    -0.812300320835E+02   -0.10573E-05   -0.13039E-05  2168   0.256E-02
   5 F= -.81230032E+02 E0= -.81230032E+02  d E =-.102398E-02
       N       E                     dE             d eps       ncg     rms          rms(c)
DAV:   1    -0.812300399036E+02   -0.88774E-05   -0.12428E-02  3008   0.596E-01    0.529E-02
DAV:   2    -0.812300591479E+02   -0.19244E-04   -0.35733E-04  4144   0.113E-01    0.295E-02
DAV:   3    -0.812300519823E+02    0.71656E-05   -0.53088E-05  3288   0.432E-02
   6 F= -.81230052E+02 E0= -.81230052E+02  d E =-.104387E-02
