<?xml version="1.0" encoding="ISO-8859-1"?>
<modeling>
 <generator>
  <i name="program" type="string">vasp </i>
  <i name="version" type="string">5.4.4.18Apr17-6-g9f103f2a35  </i>
  <i name="subversion" type="string">(build Oct 23 2017 21:22:35) complex            parallel </i>
  <i name="platform" type="string">LinuxIFC </i>
  <i name="date" type="string">2017 12 27 </i>
  <i name="time" type="string">07:49:02 </i>
 </generator>
 <incar>
  <i type="string" name="PREC">accurate</i>
  <i type="int" name="IBRION">    -1</i>
  <i name="EDIFF">      0.00001000</i>
  <i name="EDIFFG">     -0.01000000</i>
  <i type="int" name="ISIF">     2</i>
  <i name="ENCUT">    500.00000000</i>
  <i type="int" name="ISMEAR">    -5</i>
  <v type="int" name="KPOINT_BSE">    -1     0     0     0</v>
 </incar>
 <structure name="primitive_cell" >
  <crystal>
   <varray name="basis" >
    <v>       0.00000000      -3.99952465      -3.99952465 </v>
    <v>       0.00000000       3.99952465      -3.99952465 </v>
    <v>       4.00870296       0.00000000       0.00000000 </v>
   </varray>
   <i name="volume">    128.24800766 </i>
   <varray name="rec_basis" >
    <v>       0.00000000      -0.12501486      -0.12501486 </v>
    <v>       0.00000000       0.12501486      -0.12501486 </v>
    <v>       0.24945725       0.00000000       0.00000000 </v>
   </varray>
  </crystal>
  <varray name="positions" >
   <v>       0.00000000      -0.50000000      -0.50000000 </v>
   <v>       0.00000000      -0.50000000       0.00000000 </v>
   <v>      -0.25062331      -0.24937669      -0.50000000 </v>
   <v>      -0.25062331       0.24937669      -0.50000000 </v>
   <v>       0.25062331       0.24937669      -0.50000000 </v>
   <v>       0.25062331      -0.24937669      -0.50000000 </v>
   <v>      -0.50000000      -0.50000000       0.00000000 </v>
   <v>       0.00000000       0.00000000       0.00000000 </v>
   <v>      -0.50000000       0.00000000      -0.50000000 </v>
   <v>      -0.50000000       0.00000000       0.00000000 </v>
  </varray>
 </structure>
 <varray name="primitive_index" >
  <v type="int" >        1 </v>
  <v type="int" >        2 </v>
  <v type="int" >        3 </v>
  <v type="int" >        4 </v>
  <v type="int" >        6 </v>
  <v type="int" >        7 </v>
  <v type="int" >        8 </v>
  <v type="int" >        9 </v>
  <v type="int" >       10 </v>
  <v type="int" >        5 </v>
 </varray>
 <kpoints>
  <generation param="Gamma">
   <v type="int" name="divisions">       5        5        8 </v>
   <v name="usershift">      0.00000000       0.00000000       0.00000000 </v>
   <v name="genvec1">      0.20000000       0.00000000       0.00000000 </v>
   <v name="genvec2">      0.00000000       0.20000000       0.00000000 </v>
   <v name="genvec3">      0.00000000       0.00000000       0.12500000 </v>
   <v name="shift">      0.00000000       0.00000000       0.00000000 </v>
  </generation>
  <varray name="kpointlist" >
   <v>       0.00000000       0.00000000       0.00000000 </v>
   <v>       0.20000000       0.00000000       0.00000000 </v>
   <v>       0.40000000       0.00000000       0.00000000 </v>
   <v>       0.20000000       0.20000000       0.00000000 </v>
   <v>       0.40000000       0.20000000       0.00000000 </v>
   <v>       0.40000000       0.40000000       0.00000000 </v>
   <v>       0.00000000       0.00000000       0.12500000 </v>
   <v>       0.20000000       0.00000000       0.12500000 </v>
   <v>       0.40000000       0.00000000       0.12500000 </v>
   <v>       0.20000000       0.20000000       0.12500000 </v>
   <v>       0.40000000       0.20000000       0.12500000 </v>
   <v>       0.40000000       0.40000000       0.12500000 </v>
   <v>       0.00000000       0.00000000       0.25000000 </v>
   <v>       0.20000000       0.00000000       0.25000000 </v>
   <v>       0.40000000       0.00000000       0.25000000 </v>
   <v>       0.20000000       0.20000000       0.25000000 </v>
   <v>       0.40000000       0.20000000       0.25000000 </v>
   <v>       0.40000000       0.40000000       0.25000000 </v>
   <v>       0.00000000       0.00000000       0.37500000 </v>
   <v>       0.20000000       0.00000000       0.37500000 </v>
   <v>       0.40000000       0.00000000       0.37500000 </v>
   <v>       0.20000000       0.20000000       0.37500000 </v>
   <v>       0.40000000       0.20000000       0.37500000 </v>
   <v>       0.40000000       0.40000000       0.37500000 </v>
   <v>       0.00000000       0.00000000       0.50000000 </v>
   <v>       0.20000000       0.00000000       0.50000000 </v>
   <v>       0.40000000       0.00000000       0.50000000 </v>
   <v>       0.20000000       0.20000000       0.50000000 </v>
   <v>       0.40000000       0.20000000       0.50000000 </v>
   <v>       0.40000000       0.40000000       0.50000000 </v>
  </varray>
  <varray name="weights" >
   <v>       0.00500000 </v>
   <v>       0.02000000 </v>
   <v>       0.02000000 </v>
   <v>       0.02000000 </v>
   <v>       0.04000000 </v>
   <v>       0.02000000 </v>
   <v>       0.01000000 </v>
   <v>       0.04000000 </v>
   <v>       0.04000000 </v>
   <v>       0.04000000 </v>
   <v>       0.08000000 </v>
   <v>       0.04000000 </v>
   <v>       0.01000000 </v>
   <v>       0.04000000 </v>
   <v>       0.04000000 </v>
   <v>       0.04000000 </v>
   <v>       0.08000000 </v>
   <v>       0.04000000 </v>
   <v>       0.01000000 </v>
   <v>       0.04000000 </v>
   <v>       0.04000000 </v>
   <v>       0.04000000 </v>
   <v>       0.08000000 </v>
   <v>       0.04000000 </v>
   <v>       0.00500000 </v>
   <v>       0.02000000 </v>
   <v>       0.02000000 </v>
   <v>       0.02000000 </v>
   <v>       0.04000000 </v>
   <v>       0.02000000 </v>
  </varray>
  <varray name="tetrahedronlist"  type="int" >
   <v type="int" >        4        1        2        2        8 </v>
   <v type="int" >        4        2        2        4        8 </v>
   <v type="int" >        4        2        4        8       10 </v>
   <v type="int" >        4        1        2        7        8 </v>
   <v type="int" >        4        2        7        8        8 </v>
   <v type="int" >        4        2        8        8       10 </v>
   <v type="int" >        4        2        3        4        9 </v>
   <v type="int" >        4        3        4        5        9 </v>
   <v type="int" >        4        4        5        9       11 </v>
   <v type="int" >        4        2        4        8        9 </v>
   <v type="int" >        4        4        8        9       10 </v>
   <v type="int" >        4        4        9       10       11 </v>
   <v type="int" >        4        3        3        5        9 </v>
   <v type="int" >        4        3        5        5        9 </v>
   <v type="int" >        4        5        5        9       11 </v>
   <v type="int" >        4        3        5        9        9 </v>
   <v type="int" >        4        5        9        9       11 </v>
   <v type="int" >        4        5        9       11       11 </v>
   <v type="int" >        4        2        3        5        8 </v>
   <v type="int" >        4        2        4        5        8 </v>
   <v type="int" >        4        4        5        8       10 </v>
   <v type="int" >        4        3        5        8        9 </v>
   <v type="int" >        4        5        8        9       11 </v>
   <v type="int" >        4        5        8       10       11 </v>
   <v type="int" >        4        1        2        4        7 </v>
   <v type="int" >        4        2        4        7        8 </v>
   <v type="int" >        4        4        7        8       10 </v>
   <v type="int" >        4        2        3        4       10 </v>
   <v type="int" >        4        3        4        5       10 </v>
   <v type="int" >        4        3        5       10       11 </v>
   <v type="int" >        4        2        3        8       10 </v>
   <v type="int" >        4        3        8        9       10 </v>
   <v type="int" >        4        3        9       10       11 </v>
   <v type="int" >        4        4        5        5       11 </v>
   <v type="int" >        8        5        5        6       11 </v>
   <v type="int" >        4        5        6       11       12 </v>
   <v type="int" >        4        4        5       10       11 </v>
   <v type="int" >        4        5       10       11       11 </v>
   <v type="int" >        8        5       11       11       12 </v>
   <v type="int" >        4        5        6        6       11 </v>
   <v type="int" >        4        6        6       11       12 </v>
   <v type="int" >        4        5        6       11       11 </v>
   <v type="int" >        4        6       11       11       12 </v>
   <v type="int" >        4        6       11       12       12 </v>
   <v type="int" >        4        4        5        6       10 </v>
   <v type="int" >        4        5        6       10       11 </v>
   <v type="int" >        4        6       10       11       12 </v>
   <v type="int" >        4        3        3        5       11 </v>
   <v type="int" >        4        3        5        5       11 </v>
   <v type="int" >        4        3        5       11       11 </v>
   <v type="int" >        4        3        3        9       11 </v>
   <v type="int" >        4        3        9        9       11 </v>
   <v type="int" >        4        3        9       11       11 </v>
   <v type="int" >        4        5        5        6       12 </v>
   <v type="int" >        4        5        6        6       12 </v>
   <v type="int" >        4        5        6       12       12 </v>
   <v type="int" >        4        5        5       11       12 </v>
   <v type="int" >        4        5       11       12       12 </v>
   <v type="int" >        4        6        6        6       12 </v>
   <v type="int" >        4        6        6       12       12 </v>
   <v type="int" >        4        6       12       12       12 </v>
   <v type="int" >        4        2        3        5       11 </v>
   <v type="int" >        4        2        4        5       11 </v>
   <v type="int" >        4        2        4       10       11 </v>
   <v type="int" >        4        2        3        9       11 </v>
   <v type="int" >        4        2        8        9       11 </v>
   <v type="int" >        4        2        8       10       11 </v>
   <v type="int" >        4        4        5        6       12 </v>
   <v type="int" >        4        4        5       11       12 </v>
   <v type="int" >        4        4       10       11       12 </v>
   <v type="int" >        4        1        2        4       10 </v>
   <v type="int" >        4        1        2        8       10 </v>
   <v type="int" >        4        1        7        8       10 </v>
   <v type="int" >        4        7        8        8       14 </v>
   <v type="int" >        4        8        8       10       14 </v>
   <v type="int" >        4        8       10       14       16 </v>
   <v type="int" >        4        7        8       13       14 </v>
   <v type="int" >        4        8       13       14       14 </v>
   <v type="int" >        4        8       14       14       16 </v>
   <v type="int" >        4        8        9       10       15 </v>
   <v type="int" >        4        9       10       11       15 </v>
   <v type="int" >        4       10       11       15       17 </v>
   <v type="int" >        4        8       10       14       15 </v>
   <v type="int" >        4       10       14       15       16 </v>
   <v type="int" >        4       10       15       16       17 </v>
   <v type="int" >        4        9        9       11       15 </v>
   <v type="int" >        4        9       11       11       15 </v>
   <v type="int" >        4       11       11       15       17 </v>
   <v type="int" >        4        9       11       15       15 </v>
   <v type="int" >        4       11       15       15       17 </v>
   <v type="int" >        4       11       15       17       17 </v>
   <v type="int" >        4        8        9       11       14 </v>
   <v type="int" >        4        8       10       11       14 </v>
   <v type="int" >        4       10       11       14       16 </v>
   <v type="int" >        4        9       11       14       15 </v>
   <v type="int" >        4       11       14       15       17 </v>
   <v type="int" >        4       11       14       16       17 </v>
   <v type="int" >        4        7        8       10       13 </v>
   <v type="int" >        4        8       10       13       14 </v>
   <v type="int" >        4       10       13       14       16 </v>
   <v type="int" >        4        8        9       10       16 </v>
   <v type="int" >        4        9       10       11       16 </v>
   <v type="int" >        4        9       11       16       17 </v>
   <v type="int" >        4        8        9       14       16 </v>
   <v type="int" >        4        9       14       15       16 </v>
   <v type="int" >        4        9       15       16       17 </v>
   <v type="int" >        4       10       11       11       17 </v>
   <v type="int" >        8       11       11       12       17 </v>
   <v type="int" >        4       11       12       17       18 </v>
   <v type="int" >        4       10       11       16       17 </v>
   <v type="int" >        4       11       16       17       17 </v>
   <v type="int" >        8       11       17       17       18 </v>
   <v type="int" >        4       11       12       12       17 </v>
   <v type="int" >        4       12       12       17       18 </v>
   <v type="int" >        4       11       12       17       17 </v>
   <v type="int" >        4       12       17       17       18 </v>
   <v type="int" >        4       12       17       18       18 </v>
   <v type="int" >        4       10       11       12       16 </v>
   <v type="int" >        4       11       12       16       17 </v>
   <v type="int" >        4       12       16       17       18 </v>
   <v type="int" >        4        9        9       11       17 </v>
   <v type="int" >        4        9       11       11       17 </v>
   <v type="int" >        4        9       11       17       17 </v>
   <v type="int" >        4        9        9       15       17 </v>
   <v type="int" >        4        9       15       15       17 </v>
   <v type="int" >        4        9       15       17       17 </v>
   <v type="int" >        4       11       11       12       18 </v>
   <v type="int" >        4       11       12       12       18 </v>
   <v type="int" >        4       11       12       18       18 </v>
   <v type="int" >        4       11       11       17       18 </v>
   <v type="int" >        4       11       17       18       18 </v>
   <v type="int" >        4       12       12       12       18 </v>
   <v type="int" >        4       12       12       18       18 </v>
   <v type="int" >        4       12       18       18       18 </v>
   <v type="int" >        4        8        9       11       17 </v>
   <v type="int" >        4        8       10       11       17 </v>
   <v type="int" >        4        8       10       16       17 </v>
   <v type="int" >        4        8        9       15       17 </v>
   <v type="int" >        4        8       14       15       17 </v>
   <v type="int" >        4        8       14       16       17 </v>
   <v type="int" >        4       10       11       12       18 </v>
   <v type="int" >        4       10       11       17       18 </v>
   <v type="int" >        4       10       16       17       18 </v>
   <v type="int" >        4        7        8       10       16 </v>
   <v type="int" >        4        7        8       14       16 </v>
   <v type="int" >        4        7       13       14       16 </v>
   <v type="int" >        4       13       14       14       20 </v>
   <v type="int" >        4       14       14       16       20 </v>
   <v type="int" >        4       14       16       20       22 </v>
   <v type="int" >        4       13       14       19       20 </v>
   <v type="int" >        4       14       19       20       20 </v>
   <v type="int" >        4       14       20       20       22 </v>
   <v type="int" >        4       14       15       16       21 </v>
   <v type="int" >        4       15       16       17       21 </v>
   <v type="int" >        4       16       17       21       23 </v>
   <v type="int" >        4       14       16       20       21 </v>
   <v type="int" >        4       16       20       21       22 </v>
   <v type="int" >        4       16       21       22       23 </v>
   <v type="int" >        4       15       15       17       21 </v>
   <v type="int" >        4       15       17       17       21 </v>
   <v type="int" >        4       17       17       21       23 </v>
   <v type="int" >        4       15       17       21       21 </v>
   <v type="int" >        4       17       21       21       23 </v>
   <v type="int" >        4       17       21       23       23 </v>
   <v type="int" >        4       14       15       17       20 </v>
   <v type="int" >        4       14       16       17       20 </v>
   <v type="int" >        4       16       17       20       22 </v>
   <v type="int" >        4       15       17       20       21 </v>
   <v type="int" >        4       17       20       21       23 </v>
   <v type="int" >        4       17       20       22       23 </v>
   <v type="int" >        4       13       14       16       19 </v>
   <v type="int" >        4       14       16       19       20 </v>
   <v type="int" >        4       16       19       20       22 </v>
   <v type="int" >        4       14       15       16       22 </v>
   <v type="int" >        4       15       16       17       22 </v>
   <v type="int" >        4       15       17       22       23 </v>
   <v type="int" >        4       14       15       20       22 </v>
   <v type="int" >        4       15       20       21       22 </v>
   <v type="int" >        4       15       21       22       23 </v>
   <v type="int" >        4       16       17       17       23 </v>
   <v type="int" >        8       17       17       18       23 </v>
   <v type="int" >        4       17       18       23       24 </v>
   <v type="int" >        4       16       17       22       23 </v>
   <v type="int" >        4       17       22       23       23 </v>
   <v type="int" >        8       17       23       23       24 </v>
   <v type="int" >        4       17       18       18       23 </v>
   <v type="int" >        4       18       18       23       24 </v>
   <v type="int" >        4       17       18       23       23 </v>
   <v type="int" >        4       18       23       23       24 </v>
   <v type="int" >        4       18       23       24       24 </v>
   <v type="int" >        4       16       17       18       22 </v>
   <v type="int" >        4       17       18       22       23 </v>
   <v type="int" >        4       18       22       23       24 </v>
   <v type="int" >        4       15       15       17       23 </v>
   <v type="int" >        4       15       17       17       23 </v>
   <v type="int" >        4       15       17       23       23 </v>
   <v type="int" >        4       15       15       21       23 </v>
   <v type="int" >        4       15       21       21       23 </v>
   <v type="int" >        4       15       21       23       23 </v>
   <v type="int" >        4       17       17       18       24 </v>
   <v type="int" >        4       17       18       18       24 </v>
   <v type="int" >        4       17       18       24       24 </v>
   <v type="int" >        4       17       17       23       24 </v>
   <v type="int" >        4       17       23       24       24 </v>
   <v type="int" >        4       18       18       18       24 </v>
   <v type="int" >        4       18       18       24       24 </v>
   <v type="int" >        4       18       24       24       24 </v>
   <v type="int" >        4       14       15       17       23 </v>
   <v type="int" >        4       14       16       17       23 </v>
   <v type="int" >        4       14       16       22       23 </v>
   <v type="int" >        4       14       15       21       23 </v>
   <v type="int" >        4       14       20       21       23 </v>
   <v type="int" >        4       14       20       22       23 </v>
   <v type="int" >        4       16       17       18       24 </v>
   <v type="int" >        4       16       17       23       24 </v>
   <v type="int" >        4       16       22       23       24 </v>
   <v type="int" >        4       13       14       16       22 </v>
   <v type="int" >        4       13       14       20       22 </v>
   <v type="int" >        4       13       19       20       22 </v>
   <v type="int" >        4       19       20       20       26 </v>
   <v type="int" >        4       20       20       22       26 </v>
   <v type="int" >        4       20       22       26       28 </v>
   <v type="int" >        4       19       20       25       26 </v>
   <v type="int" >        4       20       25       26       26 </v>
   <v type="int" >        4       20       26       26       28 </v>
   <v type="int" >        4       20       21       22       27 </v>
   <v type="int" >        4       21       22       23       27 </v>
   <v type="int" >        4       22       23       27       29 </v>
   <v type="int" >        4       20       22       26       27 </v>
   <v type="int" >        4       22       26       27       28 </v>
   <v type="int" >        4       22       27       28       29 </v>
   <v type="int" >        4       21       21       23       27 </v>
   <v type="int" >        4       21       23       23       27 </v>
   <v type="int" >        4       23       23       27       29 </v>
   <v type="int" >        4       21       23       27       27 </v>
   <v type="int" >        4       23       27       27       29 </v>
   <v type="int" >        4       23       27       29       29 </v>
   <v type="int" >        4       20       21       23       26 </v>
   <v type="int" >        4       20       22       23       26 </v>
   <v type="int" >        4       22       23       26       28 </v>
   <v type="int" >        4       21       23       26       27 </v>
   <v type="int" >        4       23       26       27       29 </v>
   <v type="int" >        4       23       26       28       29 </v>
   <v type="int" >        4       19       20       22       25 </v>
   <v type="int" >        4       20       22       25       26 </v>
   <v type="int" >        4       22       25       26       28 </v>
   <v type="int" >        4       20       21       22       28 </v>
   <v type="int" >        4       21       22       23       28 </v>
   <v type="int" >        4       21       23       28       29 </v>
   <v type="int" >        4       20       21       26       28 </v>
   <v type="int" >        4       21       26       27       28 </v>
   <v type="int" >        4       21       27       28       29 </v>
   <v type="int" >        4       22       23       23       29 </v>
   <v type="int" >        8       23       23       24       29 </v>
   <v type="int" >        4       23       24       29       30 </v>
   <v type="int" >        4       22       23       28       29 </v>
   <v type="int" >        4       23       28       29       29 </v>
   <v type="int" >        8       23       29       29       30 </v>
   <v type="int" >        4       23       24       24       29 </v>
   <v type="int" >        4       24       24       29       30 </v>
   <v type="int" >        4       23       24       29       29 </v>
   <v type="int" >        4       24       29       29       30 </v>
   <v type="int" >        4       24       29       30       30 </v>
   <v type="int" >        4       22       23       24       28 </v>
   <v type="int" >        4       23       24       28       29 </v>
   <v type="int" >        4       24       28       29       30 </v>
   <v type="int" >        4       21       21       23       29 </v>
   <v type="int" >        4       21       23       23       29 </v>
   <v type="int" >        4       21       23       29       29 </v>
   <v type="int" >        4       21       21       27       29 </v>
   <v type="int" >        4       21       27       27       29 </v>
   <v type="int" >        4       21       27       29       29 </v>
   <v type="int" >        4       23       23       24       30 </v>
   <v type="int" >        4       23       24       24       30 </v>
   <v type="int" >        4       23       24       30       30 </v>
   <v type="int" >        4       23       23       29       30 </v>
   <v type="int" >        4       23       29       30       30 </v>
   <v type="int" >        4       24       24       24       30 </v>
   <v type="int" >        4       24       24       30       30 </v>
   <v type="int" >        4       24       30       30       30 </v>
   <v type="int" >        4       20       21       23       29 </v>
   <v type="int" >        4       20       22       23       29 </v>
   <v type="int" >        4       20       22       28       29 </v>
   <v type="int" >        4       20       21       27       29 </v>
   <v type="int" >        4       20       26       27       29 </v>
   <v type="int" >        4       20       26       28       29 </v>
   <v type="int" >        4       22       23       24       30 </v>
   <v type="int" >        4       22       23       29       30 </v>
   <v type="int" >        4       22       28       29       30 </v>
   <v type="int" >        4       19       20       22       28 </v>
   <v type="int" >        4       19       20       26       28 </v>
   <v type="int" >        4       19       25       26       28 </v>
  </varray>
  <i name="volumeweight">      0.00083333 </i>
 </kpoints>
 <parameters>
  <separator name="general" >
   <i type="string" name="SYSTEM">unknown system</i>
   <i type="logical" name="LCOMPAT"> F  </i>
  </separator>
  <separator name="electronic" >
   <i type="string" name="PREC">accura</i>
   <i name="ENMAX">    500.00000000</i>
   <i name="ENAUG">    605.39200000</i>
   <i name="EDIFF">      0.00001000</i>
   <i type="int" name="IALGO">    38</i>
   <i type="int" name="IWAVPR">    10</i>
   <i type="int" name="NBANDS">    48</i>
   <i name="NELECT">     81.00000000</i>
   <i type="int" name="TURBO">     0</i>
   <i type="int" name="IRESTART">     0</i>
   <i type="int" name="NREBOOT">     0</i>
   <i type="int" name="NMIN">     0</i>
   <i name="EREF">      0.00000000</i>
   <separator name="electronic smearing" >
    <i type="int" name="ISMEAR">    -5</i>
    <i name="SIGMA">      0.20000000</i>
    <i name="KSPACING">      0.50000000</i>
    <i type="logical" name="KGAMMA"> T  </i>
   </separator>
   <separator name="electronic projectors" >
    <i type="logical" name="LREAL"> F  </i>
    <v name="ROPT">      0.00000000      0.00000000      0.00000000      0.00000000</v>
    <i type="int" name="LMAXPAW">  -100</i>
    <i type="int" name="LMAXMIX">     2</i>
    <i type="logical" name="NLSPLINE"> F  </i>
   </separator>
   <separator name="electronic startup" >
    <i type="int" name="ISTART">     1</i>
    <i type="int" name="ICHARG">     0</i>
    <i type="int" name="INIWAV">     1</i>
   </separator>
   <separator name="electronic spin" >
    <i type="int" name="ISPIN">     1</i>
    <i type="logical" name="LNONCOLLINEAR"> F  </i>
    <v name="MAGMOM">      1.00000000      1.00000000      1.00000000      1.00000000      1.00000000      1.00000000      1.00000000      1.00000000      1.00000000      1.00000000</v>
    <i name="NUPDOWN">     -1.00000000</i>
    <i type="logical" name="LSORBIT"> F  </i>
    <v name="SAXIS">      0.00000000      0.00000000      1.00000000</v>
    <i type="logical" name="LSPIRAL"> F  </i>
    <v name="QSPIRAL">      0.00000000      0.00000000      0.00000000</v>
    <i type="logical" name="LZEROZ"> F  </i>
   </separator>
   <separator name="electronic exchange-correlation" >
    <i type="logical" name="LASPH"> F  </i>
    <i type="logical" name="LMETAGGA"> F  </i>
   </separator>
   <separator name="electronic convergence" >
    <i type="int" name="NELM">    60</i>
    <i type="int" name="NELMDL">     0</i>
    <i type="int" name="NELMIN">     2</i>
    <i name="ENINI">    500.00000000</i>
    <separator name="electronic convergence detail" >
     <i type="logical" name="LDIAG"> T  </i>
     <i type="logical" name="LSUBROT"> F  </i>
     <i name="WEIMIN">      0.00000000</i>
     <i name="EBREAK">      0.00000005</i>
     <i name="DEPER">      0.30000000</i>
     <i type="int" name="NRMM">     4</i>
     <i name="TIME">      0.40000000</i>
    </separator>
   </separator>
   <separator name="electronic mixer" >
    <i name="AMIX">      0.40000000</i>
    <i name="BMIX">      1.00000000</i>
    <i name="AMIN">      0.10000000</i>
    <i name="AMIX_MAG">      1.60000000</i>
    <i name="BMIX_MAG">      1.00000000</i>
    <separator name="electronic mixer details" >
     <i type="int" name="IMIX">     4</i>
     <i type="logical" name="MIXFIRST"> F  </i>
     <i type="int" name="MAXMIX">   -45</i>
     <i name="WC">    100.00000000</i>
     <i type="int" name="INIMIX">     1</i>
     <i type="int" name="MIXPRE">     1</i>
     <i type="int" name="MREMOVE">     5</i>
    </separator>
   </separator>
   <separator name="electronic dipolcorrection" >
    <i type="logical" name="LDIPOL"> F  </i>
    <i type="logical" name="LMONO"> F  </i>
    <i type="int" name="IDIPOL">     0</i>
    <i name="EPSILON">      1.00000000</i>
    <v name="DIPOL">   -100.00000000   -100.00000000   -100.00000000</v>
    <i name="EFIELD">      0.00000000</i>
   </separator>
  </separator>
  <separator name="grids" >
   <i type="int" name="NGX">    42</i>
   <i type="int" name="NGY">    42</i>
   <i type="int" name="NGZ">    30</i>
   <i type="int" name="NGXF">    84</i>
   <i type="int" name="NGYF">    84</i>
   <i type="int" name="NGZF">    60</i>
   <i type="logical" name="ADDGRID"> F  </i>
  </separator>
  <separator name="ionic" >
   <i type="int" name="NSW">     0</i>
   <i type="int" name="IBRION">    -1</i>
   <i type="int" name="MDALGO">     0</i>
   <i type="int" name="ISIF">     2</i>
   <i name="PSTRESS">      0.00000000</i>
   <i name="EDIFFG">     -0.01000000</i>
   <i type="int" name="NFREE">     0</i>
   <i name="POTIM">      0.50000000</i>
   <i name="SMASS">     -3.00000000</i>
   <i name="SCALEE">      1.00000000</i>
  </separator>
  <separator name="ionic md" >
   <i name="TEBEG">      0.00010000</i>
   <i name="TEEND">      0.00010000</i>
   <i type="int" name="NBLOCK">     1</i>
   <i type="int" name="KBLOCK">     1</i>
   <i type="int" name="NPACO">   256</i>
   <i name="APACO">     16.00000000</i>
  </separator>
  <separator name="symmetry" >
   <i type="int" name="ISYM">     2</i>
   <i name="SYMPREC">      0.00001000</i>
  </separator>
  <separator name="dos" >
   <i type="int" name="LORBIT">     0</i>
   <v name="RWIGS">     -1.00000000     -1.00000000     -1.00000000     -1.00000000</v>
   <i type="int" name="NEDOS">   301</i>
   <i name="EMIN">     10.00000000</i>
   <i name="EMAX">    -10.00000000</i>
   <i name="EFERMI">      0.00000000</i>
  </separator>
  <separator name="writing" >
   <i type="int" name="NWRITE">     2</i>
   <i type="logical" name="LWAVE"> T  </i>
   <i type="logical" name="LDOWNSAMPLE"> F  </i>
   <i type="logical" name="LCHARG"> T  </i>
   <i type="logical" name="LPARD"> F  </i>
   <i type="logical" name="LVTOT"> F  </i>
   <i type="logical" name="LVHAR"> F  </i>
   <i type="logical" name="LELF"> F  </i>
   <i type="logical" name="LOPTICS"> F  </i>
   <v name="STM">      0.00000000      0.00000000      0.00000000      0.00000000      0.00000000      0.00000000      0.00000000</v>
  </separator>
  <separator name="performance" >
   <i type="int" name="NPAR">     4</i>
   <i type="int" name="NSIM">     4</i>
   <i type="int" name="NBLK">    -1</i>
   <i type="logical" name="LPLANE"> T  </i>
   <i type="logical" name="LSCALAPACK"> T  </i>
   <i type="logical" name="LSCAAWARE"> F  </i>
   <i type="logical" name="LSCALU"> F  </i>
   <i type="logical" name="LASYNC"> F  </i>
   <i type="logical" name="LORBITALREAL"> F  </i>
  </separator>
  <separator name="miscellaneous" >
   <i type="int" name="IDIOT">     3</i>
   <i type="int" name="ISPECIAL">     0</i>
   <i type="logical" name="LMUSIC"> F  </i>
   <v name="POMASS">     92.91000000     16.00000000     87.62000000     47.88000000</v>
   <v name="DARWINR">      0.00000000      0.00000000      0.00000000      0.00000000</v>
   <v name="DARWINV">      1.00000000      1.00000000      1.00000000      1.00000000</v>
   <i type="logical" name="LCORR"> T  </i>
  </separator>
  <i type="logical" name="GGA_COMPAT"> T  </i>
  <i type="logical" name="LBERRY"> F  </i>
  <i type="int" name="ICORELEVEL">     0</i>
  <i type="logical" name="LDAU"> F  </i>
  <i type="int" name="I_CONSTRAINED_M">     0</i>
  <separator name="electronic exchange-correlation" >
   <i type="string" name="GGA">--</i>
   <i type="int" name="VOSKOWN">     0</i>
   <i type="logical" name="LHFCALC"> F  </i>
   <i type="string" name="PRECFOCK"></i>
   <i type="logical" name="LSYMGRAD"> F  </i>
   <i type="logical" name="LHFONE"> F  </i>
   <i type="logical" name="LRHFCALC"> F  </i>
   <i type="logical" name="LTHOMAS"> F  </i>
   <i type="logical" name="LMODELHF"> F  </i>
   <i name="ENCUT4O">     -1.00000000</i>
   <i type="int" name="EXXOEP">     0</i>
   <i type="int" name="FOURORBIT">     0</i>
   <i name="AEXX">      0.00000000</i>
   <i name="HFALPHA">      0.00000000</i>
   <i name="MCALPHA">      0.00000000</i>
   <i name="ALDAX">      1.00000000</i>
   <i name="AGGAX">      1.00000000</i>
   <i name="ALDAC">      1.00000000</i>
   <i name="AGGAC">      1.00000000</i>
   <i type="int" name="NKREDX">     1</i>
   <i type="int" name="NKREDY">     1</i>
   <i type="int" name="NKREDZ">     1</i>
   <i type="logical" name="SHIFTRED"> F  </i>
   <i type="logical" name="ODDONLY"> F  </i>
   <i type="logical" name="EVENONLY"> F  </i>
   <i type="int" name="LMAXFOCK">     0</i>
   <i type="int" name="NMAXFOCKAE">     0</i>
   <i type="logical" name="LFOCKAEDFT"> F  </i>
   <i name="HFSCREEN">      0.00000000</i>
   <i name="HFSCREENC">      0.00000000</i>
   <i type="int" name="NBANDSGWLOW">     0</i>
  </separator>
  <separator name="vdW DFT" >
   <i type="logical" name="LUSE_VDW"> F  </i>
   <i name="Zab_VDW">     -0.84910000</i>
   <i name="PARAM1">      0.12340000</i>
   <i name="PARAM2">      1.00000000</i>
   <i name="PARAM3">      0.00000000</i>
  </separator>
  <separator name="model GW" >
   <i type="int" name="MODEL_GW">     0</i>
   <i name="MODEL_EPS0">      7.69488046</i>
   <i name="MODEL_ALPHA">      1.00000000</i>
  </separator>
  <separator name="linear response parameters" >
   <i type="logical" name="LEPSILON"> F  </i>
   <i type="logical" name="LRPA"> F  </i>
   <i type="logical" name="LNABLA"> F  </i>
   <i type="logical" name="LVEL"> F  </i>
   <i type="int" name="KINTER">     0</i>
   <i name="CSHIFT">      0.10000000</i>
   <i name="OMEGAMAX">     -1.00000000</i>
   <i name="DEG_THRESHOLD">      0.00200000</i>
   <i name="RTIME">     -0.10000000</i>
   <i name="WPLASMAI">      0.00000000</i>
   <v name="DFIELD">      0.00000000      0.00000000      0.00000000</v>
   <v name="WPLASMA">      0.00000000      0.00000000      0.00000000      0.00000000      0.00000000      0.00000000      0.00000000      0.00000000      0.00000000</v>
  </separator>
  <separator name="orbital magnetization" >
   <i type="logical" name="NUCIND"> F  </i>
   <v name="MAGPOS">      0.00000000      0.00000000      0.00000000</v>
   <i type="logical" name="LNICSALL"> T  </i>
   <i type="logical" name="ORBITALMAG"> F  </i>
   <i type="logical" name="LMAGBLOCH"> F  </i>
   <i type="logical" name="LCHIMAG"> F  </i>
   <i type="logical" name="LGAUGE"> T  </i>
   <i type="int" name="MAGATOM">     0</i>
   <v name="MAGDIPOL">      0.00000000      0.00000000      0.00000000</v>
   <v name="AVECCONST">      0.00000000      0.00000000      0.00000000</v>
  </separator>
  <separator name="response functions" >
   <i type="logical" name="LADDER"> F  </i>
   <i type="logical" name="LRPAFORCE"> F  </i>
   <i type="logical" name="LFXC"> F  </i>
   <i type="logical" name="LHARTREE"> T  </i>
   <i type="int" name="IBSE">     0</i>
   <v type="int" name="KPOINT">    -1     0     0     0</v>
   <i type="logical" name="LTCTE"> F  </i>
   <i type="logical" name="LTETE"> F  </i>
   <i type="logical" name="LTRIPLET"> F  </i>
   <i type="logical" name="LFXCEPS"> F  </i>
   <i type="logical" name="LFXHEG"> F  </i>
   <i type="int" name="NATURALO">     2</i>
   <i type="logical" name="L2ORDER"> F  </i>
   <i type="logical" name="LMP2LT"> F  </i>
   <i type="logical" name="LUSEW"> F  </i>
   <i name="ENCUTGW">     -2.00000000</i>
   <i name="ENCUTGWSOFT">     -2.00000000</i>
   <i name="ENCUTLF">     -1.00000000</i>
   <i type="int" name="LMAXMP2">    -1</i>
   <i name="SCISSOR">      0.00000000</i>
   <i type="int" name="NOMEGA">     0</i>
   <i type="int" name="NOMEGAR">     0</i>
   <i type="int" name="NBANDSGW">    -1</i>
   <i type="int" name="NBANDSO">    -1</i>
   <i type="int" name="NBANDSV">    -1</i>
   <i type="int" name="NELM">     1</i>
   <i type="int" name="NELMHF">     1</i>
   <i type="int" name="DIM">     3</i>
   <i type="int" name="ANTIRES">     0</i>
   <i name="OMEGAMAX">    -30.00000000</i>
   <i name="OMEGAMIN">    -30.00000000</i>
   <i name="OMEGATL">   -200.00000000</i>
   <i type="int" name="OMEGAGRID">   140</i>
   <i name="CSHIFT">     -0.10000000</i>
   <i type="logical" name="SELFENERGY"> F  </i>
   <i type="logical" name="LSPECTRAL"> F  </i>
   <i type="logical" name="LSPECTRALGW"> F  </i>
   <i type="logical" name="LSINGLES"> F  </i>
   <i type="logical" name="LFERMIGW"> F  </i>
   <i type="logical" name="ODDONLYGW"> F  </i>
   <i type="logical" name="EVENONLYGW"> F  </i>
   <i type="int" name="NKREDLFX">     1</i>
   <i type="int" name="NKREDLFY">     1</i>
   <i type="int" name="NKREDLFZ">     1</i>
   <i type="int" name="MAXMEM">  2800</i>
   <i type="int" name="TELESCOPE">     0</i>
   <i type="int" name="TAUPAR">     1</i>
   <i type="int" name="OMEGAPAR">    -1</i>
   <i name="LAMBDA">      1.00000000</i>
  </separator>
  <separator name="External order field" >
   <i name="OFIELD_KAPPA">      0.00000000</i>
   <v name="OFIELD_K">      0.00000000      0.00000000      0.00000000</v>
   <i name="OFIELD_Q6_NEAR">      0.00000000</i>
   <i name="OFIELD_Q6_FAR">      0.00000000</i>
   <i name="OFIELD_A">      0.00000000</i>
  </separator>
 </parameters>
 <atominfo>
  <atoms>      10 </atoms>
  <types>       4 </types>
  <array name="atoms" >
   <dimension dim="1">ion</dimension>
   <field type="string">element</field>
   <field type="int">atomtype</field>
   <set>
    <rc><c>Nb</c><c>   1</c></rc>
    <rc><c>O </c><c>   2</c></rc>
    <rc><c>O </c><c>   2</c></rc>
    <rc><c>O </c><c>   2</c></rc>
    <rc><c>O </c><c>   2</c></rc>
    <rc><c>O </c><c>   2</c></rc>
    <rc><c>O </c><c>   2</c></rc>
    <rc><c>Sr</c><c>   3</c></rc>
    <rc><c>Sr</c><c>   3</c></rc>
    <rc><c>Ti</c><c>   4</c></rc>
   </set>
  </array>
  <array name="atomtypes" >
   <dimension dim="1">type</dimension>
   <field type="int">atomspertype</field>
   <field type="string">element</field>
   <field>mass</field>
   <field>valence</field>
   <field type="string">pseudopotential</field>
   <set>
    <rc><c>   1</c><c>Nb</c><c>     92.91000000</c><c>     13.00000000</c><c>  PAW_PBE Nb_sv 25May2007               </c></rc>
    <rc><c>   6</c><c>O </c><c>     16.00000000</c><c>      6.00000000</c><c>  PAW_PBE O 08Apr2002                   </c></rc>
    <rc><c>   2</c><c>Sr</c><c>     87.62000000</c><c>     10.00000000</c><c>  PAW_PBE Sr_sv 07Sep2000               </c></rc>
    <rc><c>   1</c><c>Ti</c><c>     47.88000000</c><c>     12.00000000</c><c>  PAW_PBE Ti_sv 26Sep2005               </c></rc>
   </set>
  </array>
 </atominfo>
 <structure name="initialpos" >
  <crystal>
   <varray name="basis" >
    <v>       0.00000000      -3.99952465      -3.99952465 </v>
    <v>       0.00000000       3.99952465      -3.99952465 </v>
    <v>       4.00870296       0.00000000       0.00000000 </v>
   </varray>
   <i name="volume">    128.24800766 </i>
   <varray name="rec_basis" >
    <v>       0.00000000      -0.12501486      -0.12501486 </v>
    <v>       0.00000000       0.12501486      -0.12501486 </v>
    <v>       0.24945725       0.00000000       0.00000000 </v>
   </varray>
  </crystal>
  <varray name="positions" >
   <v>       0.00000000       0.50000000       0.50000000 </v>
   <v>       0.00000000       0.50000000       0.00000000 </v>
   <v>       0.74937669       0.75062331       0.50000000 </v>
   <v>       0.74937669       0.24937669       0.50000000 </v>
   <v>       0.50000000       0.00000000       0.00000000 </v>
   <v>       0.25062331       0.24937669       0.50000000 </v>
   <v>       0.25062331       0.75062331       0.50000000 </v>
   <v>       0.50000000       0.50000000       0.00000000 </v>
   <v>       0.00000000       0.00000000       0.00000000 </v>
   <v>       0.50000000       0.00000000       0.50000000 </v>
  </varray>
 </structure>
 <calculation>
  <scstep>
   <time name="dav">    0.77    0.77</time>
   <time name="total">    0.85    0.86</time>
   <energy>
    <i name="alphaZ">    449.31659354 </i>
    <i name="ewald">  -5803.45042680 </i>
    <i name="hartreedc">  -1705.51312831 </i>
    <i name="XCdc">    360.54793692 </i>
    <i name="pawpsdc">   8960.65808083 </i>
    <i name="pawaedc">  -8912.70383930 </i>
    <i name="eentropy">      0.00000000 </i>
    <i name="bandstr">   -853.56776236 </i>
    <i name="atom">   7423.46905839 </i>
    <i name="e_fr_energy">    -81.24348709 </i>
    <i name="e_wo_entrp">    -81.24348709 </i>
    <i name="e_0_energy">    -81.24348709 </i>
   </energy>
  </scstep>
  <scstep>
   <time name="dav">    0.95    0.96</time>
   <time name="total">    1.04    1.04</time>
   <energy>
    <i name="e_fr_energy">    -81.24342213 </i>
    <i name="e_wo_entrp">    -81.24342213 </i>
    <i name="e_0_energy">    -81.24342213 </i>
   </energy>
  </scstep>
  <scstep>
   <time name="dav">    0.92    0.92</time>
   <time name="total">    1.00    1.00</time>
   <energy>
    <i name="e_fr_energy">    -81.24341088 </i>
    <i name="e_wo_entrp">    -81.24341088 </i>
    <i name="e_0_energy">    -81.24341088 </i>
   </energy>
  </scstep>
  <scstep>
   <time name="dav">    0.65    0.65</time>
   <time name="total">    0.69    0.69</time>
   <energy>
    <i name="alphaZ">    449.31659354 </i>
    <i name="ewald">  -5803.45042680 </i>
    <i name="hartreedc">  -1705.59531441 </i>
    <i name="XCdc">    360.55204064 </i>
    <i name="pawpsdc">   8956.02501266 </i>
    <i name="pawaedc">  -8908.05513053 </i>
    <i name="eentropy">      0.00000000 </i>
    <i name="bandstr">   -853.50524705 </i>
    <i name="atom">   7423.46905839 </i>
    <i name="e_fr_energy">    -81.24341356 </i>
    <i name="e_wo_entrp">    -81.24341356 </i>
    <i name="e_0_energy">    -81.24341356 </i>
   </energy>
  </scstep>
  <structure>
   <crystal>
    <varray name="basis" >
     <v>       0.00000000      -3.99952465      -3.99952465 </v>
     <v>       0.00000000       3.99952465      -3.99952465 </v>
     <v>       4.00870296       0.00000000       0.00000000 </v>
    </varray>
    <i name="volume">    128.24800766 </i>
    <varray name="rec_basis" >
     <v>       0.00000000      -0.12501486      -0.12501486 </v>
     <v>       0.00000000       0.12501486      -0.12501486 </v>
     <v>       0.24945725       0.00000000       0.00000000 </v>
    </varray>
   </crystal>
   <varray name="positions" >
    <v>       0.00000000       0.50000000       0.50000000 </v>
    <v>       0.00000000       0.50000000       0.00000000 </v>
    <v>       0.74937669       0.75062331       0.50000000 </v>
    <v>       0.74937669       0.24937669       0.50000000 </v>
    <v>       0.50000000       0.00000000       0.00000000 </v>
    <v>       0.25062331       0.24937669       0.50000000 </v>
    <v>       0.25062331       0.75062331       0.50000000 </v>
    <v>       0.50000000       0.50000000       0.00000000 </v>
    <v>       0.00000000       0.00000000       0.00000000 </v>
    <v>       0.50000000       0.00000000       0.50000000 </v>
   </varray>
  </structure>
  <varray name="forces" >
   <v>       0.00000000      -0.00000000      -0.00000000 </v>
   <v>       0.00000000      -0.00000000      -0.00000000 </v>
   <v>       0.00000000       0.00757113      -0.00000000 </v>
   <v>       0.00000000      -0.00000000       0.00757113 </v>
   <v>       0.00000000      -0.00000000      -0.00000000 </v>
   <v>      -0.00000000      -0.00757113      -0.00000000 </v>
   <v>      -0.00000000      -0.00000000      -0.00757113 </v>
   <v>       0.00000000      -0.00000000      -0.00000000 </v>
   <v>       0.00000000      -0.00000000      -0.00000000 </v>
   <v>       0.00000000      -0.00000000      -0.00000000 </v>
  </varray>
  <varray name="stress" >
   <v>       1.95220792       0.00000000       0.00000000 </v>
   <v>       0.00000000       1.32656121      -0.00000000 </v>
   <v>       0.00000000       0.00000000       1.32656121 </v>
  </varray>
  <energy>
   <i name="e_fr_energy">    -81.24341356 </i>
   <i name="e_wo_entrp">    -81.24341356 </i>
   <i name="e_0_energy">      0.00000000 </i>
  </energy>
  <time name="totalsc">    4.72    5.16</time>
  <eigenvalues>
   <array>
    <dimension dim="1">band</dimension>
    <dimension dim="2">kpoint</dimension>
    <dimension dim="3">spin</dimension>
    <field>eigene</field>
    <field>occ</field>
    <set>
     <set comment="spin 1">
      <set comment="kpoint 1">
       <r>  -51.5061    1.0000 </r>
       <r>  -50.0182    1.0000 </r>
       <r>  -28.9705    1.0000 </r>
       <r>  -28.9411    1.0000 </r>
       <r>  -27.8089    1.0000 </r>
       <r>  -27.8089    1.0000 </r>
       <r>  -27.7238    1.0000 </r>
       <r>  -26.2312    1.0000 </r>
       <r>  -26.2312    1.0000 </r>
       <r>  -26.1942    1.0000 </r>
       <r>  -13.3495    1.0000 </r>
       <r>  -12.9032    1.0000 </r>
       <r>  -12.4232    1.0000 </r>
       <r>  -12.2737    1.0000 </r>
       <r>  -12.2737    1.0000 </r>
       <r>  -11.8712    1.0000 </r>
       <r>  -10.9470    1.0000 </r>
       <r>  -10.9470    1.0000 </r>
       <r>  -10.9451    1.0000 </r>
       <r>  -10.8718    1.0000 </r>
       <r>  -10.5346    1.0000 </r>
       <r>  -10.5346    1.0000 </r>
       <r>   -0.4956    1.0000 </r>
       <r>   -0.3440    1.0000 </r>
       <r>   -0.2550    1.0000 </r>
       <r>    1.2220    1.0000 </r>
       <r>    1.2220    1.0000 </r>
       <r>    1.5287    1.0000 </r>
       <r>    1.5287    1.0000 </r>
       <r>    1.5526    1.0000 </r>
       <r>    2.2408    1.0000 </r>
       <r>    2.2408    1.0000 </r>
       <r>    2.4952    1.0000 </r>
       <r>    2.8830    1.0000 </r>
       <r>    3.0859    1.0000 </r>
       <r>    3.0859    1.0000 </r>
       <r>    3.6882    1.0000 </r>
       <r>    3.6981    1.0000 </r>
       <r>    3.6981    1.0000 </r>
       <r>    3.9045    1.0000 </r>
       <r>    6.2429    1.0000 </r>
       <r>    6.2429    1.0765 </r>
       <r>    6.2620    1.1234 </r>
       <r>    8.4316    0.0000 </r>
       <r>    8.4316    0.0000 </r>
       <r>    9.0608    0.0000 </r>
       <r>    9.1481    0.0000 </r>
       <r>    9.2528    0.0000 </r>
      </set>
      <set comment="kpoint 2">
       <r>  -51.5061    1.0000 </r>
       <r>  -50.0182    1.0000 </r>
       <r>  -28.9685    1.0000 </r>
       <r>  -28.9448    1.0000 </r>
       <r>  -27.8085    1.0000 </r>
       <r>  -27.8073    1.0000 </r>
       <r>  -27.7238    1.0000 </r>
       <r>  -26.2318    1.0000 </r>
       <r>  -26.2303    1.0000 </r>
       <r>  -26.1941    1.0000 </r>
       <r>  -13.3960    1.0000 </r>
       <r>  -12.8634    1.0000 </r>
       <r>  -12.4560    1.0000 </r>
       <r>  -12.3749    1.0000 </r>
       <r>  -12.2339    1.0000 </r>
       <r>  -11.8120    1.0000 </r>
       <r>  -10.9392    1.0000 </r>
       <r>  -10.9148    1.0000 </r>
       <r>  -10.8798    1.0000 </r>
       <r>  -10.8591    1.0000 </r>
       <r>  -10.5804    1.0000 </r>
       <r>  -10.5480    1.0000 </r>
       <r>   -0.3120    1.0000 </r>
       <r>   -0.1068    1.0000 </r>
       <r>   -0.0860    1.0000 </r>
       <r>    1.2469    1.0000 </r>
       <r>    1.3028    1.0000 </r>
       <r>    1.3255    1.0000 </r>
       <r>    1.4817    1.0000 </r>
       <r>    1.5392    1.0000 </r>
       <r>    2.0871    1.0000 </r>
       <r>    2.2416    1.0000 </r>
       <r>    2.5671    1.0000 </r>
       <r>    2.6541    1.0000 </r>
       <r>    2.6550    1.0000 </r>
       <r>    3.0811    1.0000 </r>
       <r>    3.3604    1.0000 </r>
       <r>    3.4731    1.0000 </r>
       <r>    3.5649    1.0000 </r>
       <r>    3.7679    1.0000 </r>
       <r>    6.4690    1.0372 </r>
       <r>    6.5347    1.0532 </r>
       <r>    6.6885    0.7462 </r>
       <r>    8.2363    0.0000 </r>
       <r>    8.2745    0.0000 </r>
       <r>    8.8368    0.0000 </r>
       <r>    9.2574    0.0000 </r>
       <r>    9.6527    0.0000 </r>
      </set>
      <set comment="kpoint 3">
       <r>  -51.5061    1.0000 </r>
       <r>  -50.0182    1.0000 </r>
       <r>  -28.9625    1.0000 </r>
       <r>  -28.9535    1.0000 </r>
       <r>  -27.8079    1.0000 </r>
       <r>  -27.8047    1.0000 </r>
       <r>  -27.7238    1.0000 </r>
       <r>  -26.2326    1.0000 </r>
       <r>  -26.2289    1.0000 </r>
       <r>  -26.1941    1.0000 </r>
       <r>  -13.4676    1.0000 </r>
       <r>  -12.7783    1.0000 </r>
       <r>  -12.5129    1.0000 </r>
       <r>  -12.4922    1.0000 </r>
       <r>  -12.1866    1.0000 </r>
       <r>  -11.7651    1.0000 </r>
       <r>  -10.9226    1.0000 </r>
       <r>  -10.8998    1.0000 </r>
       <r>  -10.8244    1.0000 </r>
       <r>  -10.7322    1.0000 </r>
       <r>  -10.6928    1.0000 </r>
       <r>  -10.5537    1.0000 </r>
       <r>    0.1033    1.0000 </r>
       <r>    0.2973    1.0000 </r>
       <r>    0.5855    1.0000 </r>
       <r>    0.8062    1.0000 </r>
       <r>    1.2783    1.0000 </r>
       <r>    1.2907    1.0000 </r>
       <r>    1.5134    1.0000 </r>
       <r>    1.5806    1.0000 </r>
       <r>    1.5975    1.0000 </r>
       <r>    1.9993    1.0000 </r>
       <r>    2.2098    1.0000 </r>
       <r>    2.2157    1.0000 </r>
       <r>    2.7373    1.0000 </r>
       <r>    2.9070    1.0000 </r>
       <r>    3.1572    1.0000 </r>
       <r>    3.2046    1.0000 </r>
       <r>    3.3218    1.0000 </r>
       <r>    3.4516    1.0000 </r>
       <r>    7.0179    0.4874 </r>
       <r>    7.1623    0.0166 </r>
       <r>    7.4684   -0.0268 </r>
       <r>    7.7243    0.0000 </r>
       <r>    7.8364    0.0000 </r>
       <r>    8.2412    0.0000 </r>
       <r>    9.4183    0.0000 </r>
       <r>   10.3777    0.0000 </r>
      </set>
      <set comment="kpoint 4">
       <r>  -51.5061    1.0000 </r>
       <r>  -50.0182    1.0000 </r>
       <r>  -28.9671    1.0000 </r>
       <r>  -28.9479    1.0000 </r>
       <r>  -27.8076    1.0000 </r>
       <r>  -27.8067    1.0000 </r>
       <r>  -27.7238    1.0000 </r>
       <r>  -26.2313    1.0000 </r>
       <r>  -26.2296    1.0000 </r>
       <r>  -26.1941    1.0000 </r>
       <r>  -13.4520    1.0000 </r>
       <r>  -12.9121    1.0000 </r>
       <r>  -12.5466    1.0000 </r>
       <r>  -12.2851    1.0000 </r>
       <r>  -12.1447    1.0000 </r>
       <r>  -11.8172    1.0000 </r>
       <r>  -10.9384    1.0000 </r>
       <r>  -10.9345    1.0000 </r>
       <r>  -10.8865    1.0000 </r>
       <r>  -10.7472    1.0000 </r>
       <r>  -10.6361    1.0000 </r>
       <r>  -10.5224    1.0000 </r>
       <r>   -0.3062    1.0000 </r>
       <r>   -0.0944    1.0000 </r>
       <r>    0.3498    1.0000 </r>
       <r>    1.0998    1.0000 </r>
       <r>    1.3106    1.0000 </r>
       <r>    1.3637    1.0000 </r>
       <r>    1.4705    1.0000 </r>
       <r>    1.5318    1.0000 </r>
       <r>    2.0803    1.0000 </r>
       <r>    2.1163    1.0000 </r>
       <r>    2.4531    1.0000 </r>
       <r>    2.6158    1.0000 </r>
       <r>    2.6187    1.0000 </r>
       <r>    2.6451    1.0000 </r>
       <r>    3.0811    1.0000 </r>
       <r>    3.5514    1.0000 </r>
       <r>    3.5591    1.0000 </r>
       <r>    3.6099    1.0000 </r>
       <r>    6.3180    1.0466 </r>
       <r>    7.0454    0.2449 </r>
       <r>    7.0757    0.1611 </r>
       <r>    7.8118    0.0000 </r>
       <r>    8.4229    0.0000 </r>
       <r>    8.7288    0.0000 </r>
       <r>    9.1670    0.0000 </r>
       <r>    9.8524    0.0000 </r>
      </set>
      <set comment="kpoint 5">
       <r>  -51.5061    1.0000 </r>
       <r>  -50.0182    1.0000 </r>
       <r>  -28.9625    1.0000 </r>
       <r>  -28.9552    1.0000 </r>
       <r>  -27.8069    1.0000 </r>
       <r>  -27.8049    1.0000 </r>
       <r>  -27.7238    1.0000 </r>
       <r>  -26.2307    1.0000 </r>
       <r>  -26.2282    1.0000 </r>
       <r>  -26.1941    1.0000 </r>
       <r>  -13.5334    1.0000 </r>
       <r>  -12.9924    1.0000 </r>
       <r>  -12.5864    1.0000 </r>
       <r>  -12.2153    1.0000 </r>
       <r>  -12.0540    1.0000 </r>
       <r>  -11.8069    1.0000 </r>
       <r>  -10.9213    1.0000 </r>
       <r>  -10.9029    1.0000 </r>
       <r>  -10.8932    1.0000 </r>
       <r>  -10.7500    1.0000 </r>
       <r>  -10.6300    1.0000 </r>
       <r>  -10.4803    1.0000 </r>
       <r>   -0.1656    1.0000 </r>
       <r>    0.2997    1.0000 </r>
       <r>    0.5328    1.0000 </r>
       <r>    1.0886    1.0000 </r>
       <r>    1.3249    1.0000 </r>
       <r>    1.3446    1.0000 </r>
       <r>    1.5179    1.0000 </r>
       <r>    1.5892    1.0000 </r>
       <r>    1.6345    1.0000 </r>
       <r>    1.9965    1.0000 </r>
       <r>    2.0723    1.0000 </r>
       <r>    2.1486    1.0000 </r>
       <r>    2.7168    1.0000 </r>
       <r>    2.8137    1.0000 </r>
       <r>    3.0235    1.0000 </r>
       <r>    3.1815    1.0000 </r>
       <r>    3.3134    1.0000 </r>
       <r>    3.4335    1.0000 </r>
       <r>    6.6092    1.0446 </r>
       <r>    7.1695   -0.0009 </r>
       <r>    7.7361   -0.0207 </r>
       <r>    7.7530    0.0000 </r>
       <r>    8.2316    0.0000 </r>
       <r>    8.3644    0.0000 </r>
       <r>    9.2917    0.0000 </r>
       <r>   10.0760    0.0000 </r>
      </set>
      <set comment="kpoint 6">
       <r>  -51.5061    1.0000 </r>
       <r>  -50.0182    1.0000 </r>
       <r>  -28.9617    1.0000 </r>
       <r>  -28.9589    1.0000 </r>
       <r>  -27.8055    1.0000 </r>
       <r>  -27.8052    1.0000 </r>
       <r>  -27.7238    1.0000 </r>
       <r>  -26.2276    1.0000 </r>
       <r>  -26.2270    1.0000 </r>
       <r>  -26.1940    1.0000 </r>
       <r>  -13.6281    1.0000 </r>
       <r>  -13.1772    1.0000 </r>
       <r>  -12.6294    1.0000 </r>
       <r>  -11.9790    1.0000 </r>
       <r>  -11.8847    1.0000 </r>
       <r>  -11.8463    1.0000 </r>
       <r>  -10.9422    1.0000 </r>
       <r>  -10.9171    1.0000 </r>
       <r>  -10.9101    1.0000 </r>
       <r>  -10.8316    1.0000 </r>
       <r>  -10.5381    1.0000 </r>
       <r>  -10.3797    1.0000 </r>
       <r>   -0.4291    1.0000 </r>
       <r>    0.0479    1.0000 </r>
       <r>    0.9466    1.0000 </r>
       <r>    1.3270    1.0000 </r>
       <r>    1.3674    1.0000 </r>
       <r>    1.4639    1.0000 </r>
       <r>    1.5280    1.0000 </r>
       <r>    1.6064    1.0000 </r>
       <r>    1.7588    1.0000 </r>
       <r>    1.8152    1.0000 </r>
       <r>    1.8316    1.0000 </r>
       <r>    2.0334    1.0000 </r>
       <r>    2.2418    1.0000 </r>
       <r>    2.6109    1.0000 </r>
       <r>    2.9481    1.0000 </r>
       <r>    3.2276    1.0000 </r>
       <r>    3.4441    1.0000 </r>
       <r>    3.5744    1.0000 </r>
       <r>    6.4478    1.0000 </r>
       <r>    6.6845    0.9197 </r>
       <r>    8.1663    0.0000 </r>
       <r>    8.2158    0.0000 </r>
       <r>    8.4092    0.0000 </r>
       <r>    8.5156    0.0000 </r>
       <r>    9.1249    0.0000 </r>
       <r>    9.6232    0.0000 </r>
      </set>
      <set comment="kpoint 7">
       <r>  -51.5060    1.0000 </r>
       <r>  -50.0178    1.0000 </r>
       <r>  -28.9691    1.0000 </r>
       <r>  -28.9393    1.0000 </r>
       <r>  -27.8085    1.0000 </r>
       <r>  -27.8085    1.0000 </r>
       <r>  -27.7313    1.0000 </r>
       <r>  -26.2303    1.0000 </r>
       <r>  -26.2303    1.0000 </r>
       <r>  -26.2176    1.0000 </r>
       <r>  -13.2482    1.0000 </r>
       <r>  -12.9145    1.0000 </r>
       <r>  -12.4187    1.0000 </r>
       <r>  -12.2264    1.0000 </r>
       <r>  -12.2264    1.0000 </r>
       <r>  -11.8260    1.0000 </r>
       <r>  -10.9439    1.0000 </r>
       <r>  -10.9439    1.0000 </r>
       <r>  -10.9136    1.0000 </r>
       <r>  -10.8557    1.0000 </r>
       <r>  -10.6005    1.0000 </r>
       <r>  -10.6005    1.0000 </r>
       <r>   -0.3859    1.0000 </r>
       <r>   -0.3439    1.0000 </r>
       <r>   -0.2526    1.0000 </r>
       <r>    0.9118    1.0000 </r>
       <r>    0.9118    1.0000 </r>
       <r>    1.2904    1.0000 </r>
       <r>    1.5626    1.0000 </r>
       <r>    1.5626    1.0000 </r>
       <r>    2.0193    1.0000 </r>
       <r>    2.4341    1.0000 </r>
       <r>    2.4341    1.0000 </r>
       <r>    2.7635    1.0000 </r>
       <r>    3.0596    1.0000 </r>
       <r>    3.0596    1.0000 </r>
       <r>    3.2471    1.0000 </r>
       <r>    3.6037    1.0000 </r>
       <r>    3.6037    1.0000 </r>
       <r>    3.9160    1.0000 </r>
       <r>    6.2937    1.0235 </r>
       <r>    6.6096    0.9377 </r>
       <r>    6.6096    0.8963 </r>
       <r>    8.5216    0.0000 </r>
       <r>    8.5216    0.0000 </r>
       <r>    9.0997    0.0000 </r>
       <r>    9.2548    0.0000 </r>
       <r>    9.5202    0.0000 </r>
      </set>
      <set comment="kpoint 8">
       <r>  -51.5059    1.0000 </r>
       <r>  -50.0178    1.0000 </r>
       <r>  -28.9669    1.0000 </r>
       <r>  -28.9428    1.0000 </r>
       <r>  -27.8082    1.0000 </r>
       <r>  -27.8071    1.0000 </r>
       <r>  -27.7314    1.0000 </r>
       <r>  -26.2308    1.0000 </r>
       <r>  -26.2297    1.0000 </r>
       <r>  -26.2177    1.0000 </r>
       <r>  -13.2793    1.0000 </r>
       <r>  -12.8779    1.0000 </r>
       <r>  -12.4406    1.0000 </r>
       <r>  -12.3351    1.0000 </r>
       <r>  -12.1959    1.0000 </r>
       <r>  -11.7878    1.0000 </r>
       <r>  -10.9358    1.0000 </r>
       <r>  -10.9192    1.0000 </r>
       <r>  -10.8933    1.0000 </r>
       <r>  -10.8115    1.0000 </r>
       <r>  -10.6404    1.0000 </r>
       <r>  -10.5802    1.0000 </r>
       <r>   -0.2444    1.0000 </r>
       <r>   -0.0898    1.0000 </r>
       <r>   -0.0833    1.0000 </r>
       <r>    0.8718    1.0000 </r>
       <r>    0.9748    1.0000 </r>
       <r>    1.2081    1.0000 </r>
       <r>    1.4357    1.0000 </r>
       <r>    1.5291    1.0000 </r>
       <r>    2.0298    1.0000 </r>
       <r>    2.2592    1.0000 </r>
       <r>    2.2903    1.0000 </r>
       <r>    2.6621    1.0000 </r>
       <r>    2.7422    1.0000 </r>
       <r>    3.1068    1.0000 </r>
       <r>    3.1169    1.0000 </r>
       <r>    3.4033    1.0000 </r>
       <r>    3.4512    1.0000 </r>
       <r>    3.7760    1.0000 </r>
       <r>    6.6937    0.9560 </r>
       <r>    6.7881    0.5413 </r>
       <r>    6.8047    0.4340 </r>
       <r>    8.3278    0.0000 </r>
       <r>    8.3625    0.0000 </r>
       <r>    8.8714    0.0000 </r>
       <r>    9.6957    0.0000 </r>
       <r>    9.7122    0.0000 </r>
      </set>
      <set comment="kpoint 9">
       <r>  -51.5059    1.0000 </r>
       <r>  -50.0178    1.0000 </r>
       <r>  -28.9605    1.0000 </r>
       <r>  -28.9513    1.0000 </r>
       <r>  -27.8076    1.0000 </r>
       <r>  -27.8049    1.0000 </r>
       <r>  -27.7315    1.0000 </r>
       <r>  -26.2317    1.0000 </r>
       <r>  -26.2287    1.0000 </r>
       <r>  -26.2180    1.0000 </r>
       <r>  -13.3386    1.0000 </r>
       <r>  -12.7614    1.0000 </r>
       <r>  -12.5096    1.0000 </r>
       <r>  -12.4672    1.0000 </r>
       <r>  -12.1549    1.0000 </r>
       <r>  -11.7808    1.0000 </r>
       <r>  -10.9406    1.0000 </r>
       <r>  -10.8885    1.0000 </r>
       <r>  -10.8486    1.0000 </r>
       <r>  -10.7357    1.0000 </r>
       <r>  -10.6922    1.0000 </r>
       <r>  -10.5422    1.0000 </r>
       <r>    0.0991    1.0000 </r>
       <r>    0.3014    1.0000 </r>
       <r>    0.5882    1.0000 </r>
       <r>    0.6149    1.0000 </r>
       <r>    1.0676    1.0000 </r>
       <r>    1.1295    1.0000 </r>
       <r>    1.2821    1.0000 </r>
       <r>    1.4147    1.0000 </r>
       <r>    1.6306    1.0000 </r>
       <r>    1.9413    1.0000 </r>
       <r>    2.0055    1.0000 </r>
       <r>    2.2391    1.0000 </r>
       <r>    2.6125    1.0000 </r>
       <r>    3.0004    1.0000 </r>
       <r>    3.1363    1.0000 </r>
       <r>    3.1819    1.0000 </r>
       <r>    3.3354    1.0000 </r>
       <r>    3.4852    1.0000 </r>
       <r>    7.2099    0.0589 </r>
       <r>    7.3083   -0.0135 </r>
       <r>    7.5019   -0.0161 </r>
       <r>    7.8412    0.0000 </r>
       <r>    7.9269    0.0000 </r>
       <r>    8.2760    0.0000 </r>
       <r>    9.8809    0.0000 </r>
       <r>   10.5700    0.0000 </r>
      </set>
      <set comment="kpoint 10">
       <r>  -51.5059    1.0000 </r>
       <r>  -50.0178    1.0000 </r>
       <r>  -28.9652    1.0000 </r>
       <r>  -28.9457    1.0000 </r>
       <r>  -27.8074    1.0000 </r>
       <r>  -27.8066    1.0000 </r>
       <r>  -27.7315    1.0000 </r>
       <r>  -26.2307    1.0000 </r>
       <r>  -26.2289    1.0000 </r>
       <r>  -26.2178    1.0000 </r>
       <r>  -13.3304    1.0000 </r>
       <r>  -12.8986    1.0000 </r>
       <r>  -12.5303    1.0000 </r>
       <r>  -12.2709    1.0000 </r>
       <r>  -12.1242    1.0000 </r>
       <r>  -11.8033    1.0000 </r>
       <r>  -10.9615    1.0000 </r>
       <r>  -10.9169    1.0000 </r>
       <r>  -10.8704    1.0000 </r>
       <r>  -10.7459    1.0000 </r>
       <r>  -10.6397    1.0000 </r>
       <r>  -10.5662    1.0000 </r>
       <r>   -0.3097    1.0000 </r>
       <r>   -0.0337    1.0000 </r>
       <r>    0.3535    1.0000 </r>
       <r>    0.8512    1.0000 </r>
       <r>    0.9085    1.0000 </r>
       <r>    1.1946    1.0000 </r>
       <r>    1.3432    1.0000 </r>
       <r>    1.5477    1.0000 </r>
       <r>    1.9516    1.0000 </r>
       <r>    2.1278    1.0000 </r>
       <r>    2.2615    1.0000 </r>
       <r>    2.5783    1.0000 </r>
       <r>    2.6711    1.0000 </r>
       <r>    2.7371    1.0000 </r>
       <r>    3.1763    1.0000 </r>
       <r>    3.3051    1.0000 </r>
       <r>    3.4549    1.0000 </r>
       <r>    3.5979    1.0000 </r>
       <r>    6.6620    0.9449 </r>
       <r>    7.1024    0.1006 </r>
       <r>    7.1961    0.0377 </r>
       <r>    7.9319    0.0000 </r>
       <r>    8.4950    0.0000 </r>
       <r>    8.7597    0.0000 </r>
       <r>    9.4759    0.0000 </r>
       <r>   10.0914    0.0000 </r>
      </set>
      <set comment="kpoint 11">
       <r>  -51.5059    1.0000 </r>
       <r>  -50.0178    1.0000 </r>
       <r>  -28.9602    1.0000 </r>
       <r>  -28.9528    1.0000 </r>
       <r>  -27.8068    1.0000 </r>
       <r>  -27.8051    1.0000 </r>
       <r>  -27.7316    1.0000 </r>
       <r>  -26.2301    1.0000 </r>
       <r>  -26.2279    1.0000 </r>
       <r>  -26.2180    1.0000 </r>
       <r>  -13.4057    1.0000 </r>
       <r>  -12.9461    1.0000 </r>
       <r>  -12.5734    1.0000 </r>
       <r>  -12.2163    1.0000 </r>
       <r>  -12.0614    1.0000 </r>
       <r>  -11.8230    1.0000 </r>
       <r>  -10.9662    1.0000 </r>
       <r>  -10.9109    1.0000 </r>
       <r>  -10.8308    1.0000 </r>
       <r>  -10.7203    1.0000 </r>
       <r>  -10.6477    1.0000 </r>
       <r>  -10.4925    1.0000 </r>
       <r>   -0.1754    1.0000 </r>
       <r>    0.2928    1.0000 </r>
       <r>    0.4936    1.0000 </r>
       <r>    0.7805    1.0000 </r>
       <r>    0.9746    1.0000 </r>
       <r>    1.2053    1.0000 </r>
       <r>    1.4013    1.0000 </r>
       <r>    1.4285    1.0000 </r>
       <r>    1.6869    1.0000 </r>
       <r>    1.7384    1.0000 </r>
       <r>    2.2299    1.0000 </r>
       <r>    2.4098    1.0000 </r>
       <r>    2.5821    1.0000 </r>
       <r>    2.7873    1.0000 </r>
       <r>    3.1005    1.0000 </r>
       <r>    3.1674    1.0000 </r>
       <r>    3.1930    1.0000 </r>
       <r>    3.3369    1.0000 </r>
       <r>    6.8898    0.6063 </r>
       <r>    7.3589   -0.0290 </r>
       <r>    7.7733   -0.0114 </r>
       <r>    7.8057    0.0000 </r>
       <r>    8.2901    0.0000 </r>
       <r>    8.3920    0.0000 </r>
       <r>    9.6881    0.0000 </r>
       <r>   10.2845    0.0000 </r>
      </set>
      <set comment="kpoint 12">
       <r>  -51.5059    1.0000 </r>
       <r>  -50.0178    1.0000 </r>
       <r>  -28.9590    1.0000 </r>
       <r>  -28.9562    1.0000 </r>
       <r>  -27.8057    1.0000 </r>
       <r>  -27.8054    1.0000 </r>
       <r>  -27.7318    1.0000 </r>
       <r>  -26.2274    1.0000 </r>
       <r>  -26.2267    1.0000 </r>
       <r>  -26.2183    1.0000 </r>
       <r>  -13.5006    1.0000 </r>
       <r>  -13.1191    1.0000 </r>
       <r>  -12.5950    1.0000 </r>
       <r>  -12.0005    1.0000 </r>
       <r>  -11.9456    1.0000 </r>
       <r>  -11.8844    1.0000 </r>
       <r>  -10.9650    1.0000 </r>
       <r>  -10.8887    1.0000 </r>
       <r>  -10.8457    1.0000 </r>
       <r>  -10.7735    1.0000 </r>
       <r>  -10.5728    1.0000 </r>
       <r>  -10.3946    1.0000 </r>
       <r>   -0.4397    1.0000 </r>
       <r>    0.0404    1.0000 </r>
       <r>    0.6737    1.0000 </r>
       <r>    0.7639    1.0000 </r>
       <r>    1.0531    1.0000 </r>
       <r>    1.2409    1.0000 </r>
       <r>    1.5326    1.0000 </r>
       <r>    1.5687    1.0000 </r>
       <r>    1.6244    1.0000 </r>
       <r>    1.7928    1.0000 </r>
       <r>    2.0643    1.0000 </r>
       <r>    2.4224    1.0000 </r>
       <r>    2.5942    1.0000 </r>
       <r>    2.6306    1.0000 </r>
       <r>    2.7423    1.0000 </r>
       <r>    3.1424    1.0000 </r>
       <r>    3.2848    1.0000 </r>
       <r>    3.3090    1.0000 </r>
       <r>    6.7764    0.7851 </r>
       <r>    6.9620    0.1688 </r>
       <r>    8.1720    0.0000 </r>
       <r>    8.2517    0.0000 </r>
       <r>    8.4478    0.0000 </r>
       <r>    8.5287    0.0000 </r>
       <r>    9.4788    0.0000 </r>
       <r>    9.8341    0.0000 </r>
      </set>
      <set comment="kpoint 13">
       <r>  -51.5056    1.0000 </r>
       <r>  -50.0169    1.0000 </r>
       <r>  -28.9657    1.0000 </r>
       <r>  -28.9348    1.0000 </r>
       <r>  -27.8077    1.0000 </r>
       <r>  -27.8077    1.0000 </r>
       <r>  -27.7494    1.0000 </r>
       <r>  -26.2735    1.0000 </r>
       <r>  -26.2280    1.0000 </r>
       <r>  -26.2280    1.0000 </r>
       <r>  -13.2156    1.0000 </r>
       <r>  -12.7099    1.0000 </r>
       <r>  -12.4078    1.0000 </r>
       <r>  -12.0932    1.0000 </r>
       <r>  -12.0932    1.0000 </r>
       <r>  -11.6825    1.0000 </r>
       <r>  -11.0123    1.0000 </r>
       <r>  -10.9424    1.0000 </r>
       <r>  -10.9424    1.0000 </r>
       <r>  -10.7720    1.0000 </r>
       <r>  -10.7720    1.0000 </r>
       <r>  -10.6696    1.0000 </r>
       <r>   -0.3735    1.0000 </r>
       <r>   -0.2468    1.0000 </r>
       <r>   -0.1194    1.0000 </r>
       <r>    0.3897    1.0000 </r>
       <r>    0.4916    1.0000 </r>
       <r>    0.4916    1.0000 </r>
       <r>    1.3451    1.0000 </r>
       <r>    1.5504    1.0000 </r>
       <r>    1.5504    1.0000 </r>
       <r>    2.3211    1.0000 </r>
       <r>    2.3211    1.0000 </r>
       <r>    2.4323    1.0000 </r>
       <r>    2.4996    1.0000 </r>
       <r>    3.2908    1.0000 </r>
       <r>    3.2908    1.0000 </r>
       <r>    3.5613    1.0000 </r>
       <r>    3.5613    1.0000 </r>
       <r>    3.9442    1.0000 </r>
       <r>    6.3726    1.0782 </r>
       <r>    7.3901   -0.0359 </r>
       <r>    7.3901   -0.0307 </r>
       <r>    8.7766    0.0000 </r>
       <r>    8.7766    0.0000 </r>
       <r>    9.1922    0.0000 </r>
       <r>    9.2581    0.0000 </r>
       <r>   10.0631    0.0000 </r>
      </set>
      <set comment="kpoint 14">
       <r>  -51.5056    1.0000 </r>
       <r>  -50.0169    1.0000 </r>
       <r>  -28.9629    1.0000 </r>
       <r>  -28.9379    1.0000 </r>
       <r>  -27.8073    1.0000 </r>
       <r>  -27.8068    1.0000 </r>
       <r>  -27.7497    1.0000 </r>
       <r>  -26.2740    1.0000 </r>
       <r>  -26.2285    1.0000 </r>
       <r>  -26.2281    1.0000 </r>
       <r>  -13.1504    1.0000 </r>
       <r>  -12.7546    1.0000 </r>
       <r>  -12.4063    1.0000 </r>
       <r>  -12.2203    1.0000 </r>
       <r>  -12.0838    1.0000 </r>
       <r>  -11.7075    1.0000 </r>
       <r>  -11.0276    1.0000 </r>
       <r>  -10.9363    1.0000 </r>
       <r>  -10.8561    1.0000 </r>
       <r>  -10.7952    1.0000 </r>
       <r>  -10.6895    1.0000 </r>
       <r>  -10.6546    1.0000 </r>
       <r>   -0.1983    1.0000 </r>
       <r>   -0.0765    1.0000 </r>
       <r>    0.0129    1.0000 </r>
       <r>    0.3776    1.0000 </r>
       <r>    0.4595    1.0000 </r>
       <r>    0.5296    1.0000 </r>
       <r>    1.2079    1.0000 </r>
       <r>    1.5023    1.0000 </r>
       <r>    1.5162    1.0000 </r>
       <r>    1.9320    1.0000 </r>
       <r>    1.9449    1.0000 </r>
       <r>    2.6022    1.0000 </r>
       <r>    2.8521    1.0000 </r>
       <r>    2.9853    1.0000 </r>
       <r>    3.1357    1.0000 </r>
       <r>    3.4327    1.0000 </r>
       <r>    3.5173    1.0000 </r>
       <r>    3.8043    1.0000 </r>
       <r>    6.7810    0.7205 </r>
       <r>    7.4657   -0.0253 </r>
       <r>    7.4668   -0.0190 </r>
       <r>    8.5965    0.0000 </r>
       <r>    8.6196    0.0000 </r>
       <r>    8.9532    0.0000 </r>
       <r>    9.7130    0.0000 </r>
       <r>   10.3679    0.0000 </r>
      </set>
      <set comment="kpoint 15">
       <r>  -51.5056    1.0000 </r>
       <r>  -50.0169    1.0000 </r>
       <r>  -28.9554    1.0000 </r>
       <r>  -28.9459    1.0000 </r>
       <r>  -27.8067    1.0000 </r>
       <r>  -27.8053    1.0000 </r>
       <r>  -27.7502    1.0000 </r>
       <r>  -26.2747    1.0000 </r>
       <r>  -26.2294    1.0000 </r>
       <r>  -26.2282    1.0000 </r>
       <r>  -13.0542    1.0000 </r>
       <r>  -12.7251    1.0000 </r>
       <r>  -12.4732    1.0000 </r>
       <r>  -12.4040    1.0000 </r>
       <r>  -12.0681    1.0000 </r>
       <r>  -11.7989    1.0000 </r>
       <r>  -10.9589    1.0000 </r>
       <r>  -10.9184    1.0000 </r>
       <r>  -10.8413    1.0000 </r>
       <r>  -10.8067    1.0000 </r>
       <r>  -10.6472    1.0000 </r>
       <r>  -10.5342    1.0000 </r>
       <r>    0.0174    1.0000 </r>
       <r>    0.2207    1.0000 </r>
       <r>    0.3084    1.0000 </r>
       <r>    0.3117    1.0000 </r>
       <r>    0.6017    1.0000 </r>
       <r>    0.7786    1.0000 </r>
       <r>    1.0577    1.0000 </r>
       <r>    1.3682    1.0000 </r>
       <r>    1.4422    1.0000 </r>
       <r>    1.5442    1.0000 </r>
       <r>    1.5756    1.0000 </r>
       <r>    1.8252    1.0000 </r>
       <r>    2.9391    1.0000 </r>
       <r>    2.9742    1.0000 </r>
       <r>    3.1268    1.0000 </r>
       <r>    3.3250    1.0000 </r>
       <r>    3.3683    1.0000 </r>
       <r>    3.6570    1.0000 </r>
       <r>    7.5709   -0.0661 </r>
       <r>    7.7477   -0.0037 </r>
       <r>    7.7538   -0.0019 </r>
       <r>    8.1845    0.0000 </r>
       <r>    8.2151    0.0000 </r>
       <r>    8.3589    0.0000 </r>
       <r>   10.6092    0.0000 </r>
       <r>   10.7709    0.0000 </r>
      </set>
      <set comment="kpoint 16">
       <r>  -51.5056    1.0000 </r>
       <r>  -50.0169    1.0000 </r>
       <r>  -28.9607    1.0000 </r>
       <r>  -28.9405    1.0000 </r>
       <r>  -27.8071    1.0000 </r>
       <r>  -27.8062    1.0000 </r>
       <r>  -27.7500    1.0000 </r>
       <r>  -26.2745    1.0000 </r>
       <r>  -26.2290    1.0000 </r>
       <r>  -26.2273    1.0000 </r>
       <r>  -13.1272    1.0000 </r>
       <r>  -12.7976    1.0000 </r>
       <r>  -12.4699    1.0000 </r>
       <r>  -12.2086    1.0000 </r>
       <r>  -12.0770    1.0000 </r>
       <r>  -11.7489    1.0000 </r>
       <r>  -11.0509    1.0000 </r>
       <r>  -10.9114    1.0000 </r>
       <r>  -10.8265    1.0000 </r>
       <r>  -10.6929    1.0000 </r>
       <r>  -10.6904    1.0000 </r>
       <r>  -10.6325    1.0000 </r>
       <r>   -0.3320    1.0000 </r>
       <r>    0.0639    1.0000 </r>
       <r>    0.2321    1.0000 </r>
       <r>    0.4017    1.0000 </r>
       <r>    0.4681    1.0000 </r>
       <r>    0.4963    1.0000 </r>
       <r>    1.2249    1.0000 </r>
       <r>    1.4645    1.0000 </r>
       <r>    1.5229    1.0000 </r>
       <r>    1.5300    1.0000 </r>
       <r>    2.0960    1.0000 </r>
       <r>    2.4416    1.0000 </r>
       <r>    2.7382    1.0000 </r>
       <r>    2.9989    1.0000 </r>
       <r>    3.0197    1.0000 </r>
       <r>    3.4461    1.0000 </r>
       <r>    3.4671    1.0000 </r>
       <r>    3.6448    1.0000 </r>
       <r>    7.1263    0.1624 </r>
       <r>    7.4444   -0.0131 </r>
       <r>    7.6718   -0.0162 </r>
       <r>    8.2713    0.0000 </r>
       <r>    8.7154    0.0000 </r>
       <r>    8.8384    0.0000 </r>
       <r>    9.7311    0.0000 </r>
       <r>   10.5938    0.0000 </r>
      </set>
      <set comment="kpoint 17">
       <r>  -51.5056    1.0000 </r>
       <r>  -50.0169    1.0000 </r>
       <r>  -28.9547    1.0000 </r>
       <r>  -28.9470    1.0000 </r>
       <r>  -27.8066    1.0000 </r>
       <r>  -27.8055    1.0000 </r>
       <r>  -27.7505    1.0000 </r>
       <r>  -26.2752    1.0000 </r>
       <r>  -26.2286    1.0000 </r>
       <r>  -26.2273    1.0000 </r>
       <r>  -13.1073    1.0000 </r>
       <r>  -12.8296    1.0000 </r>
       <r>  -12.5419    1.0000 </r>
       <r>  -12.2298    1.0000 </r>
       <r>  -12.0627    1.0000 </r>
       <r>  -11.8376    1.0000 </r>
       <r>  -11.0021    1.0000 </r>
       <r>  -10.9011    1.0000 </r>
       <r>  -10.7848    1.0000 </r>
       <r>  -10.6997    1.0000 </r>
       <r>  -10.6515    1.0000 </r>
       <r>  -10.5064    1.0000 </r>
       <r>   -0.2150    1.0000 </r>
       <r>    0.1299    1.0000 </r>
       <r>    0.2138    1.0000 </r>
       <r>    0.2472    1.0000 </r>
       <r>    0.5111    1.0000 </r>
       <r>    0.7410    1.0000 </r>
       <r>    1.2638    1.0000 </r>
       <r>    1.3319    1.0000 </r>
       <r>    1.4392    1.0000 </r>
       <r>    1.6536    1.0000 </r>
       <r>    1.7377    1.0000 </r>
       <r>    2.2344    1.0000 </r>
       <r>    2.7895    1.0000 </r>
       <r>    2.8386    1.0000 </r>
       <r>    2.9615    1.0000 </r>
       <r>    3.1348    1.0000 </r>
       <r>    3.4278    1.0000 </r>
       <r>    3.5568    1.0000 </r>
       <r>    7.5413   -0.0745 </r>
       <r>    7.8261   -0.0026 </r>
       <r>    7.8642   -0.0011 </r>
       <r>    8.0797    0.0000 </r>
       <r>    8.4556    0.0000 </r>
       <r>    8.5099    0.0000 </r>
       <r>   10.1591    0.0000 </r>
       <r>   10.7219    0.0000 </r>
      </set>
      <set comment="kpoint 18">
       <r>  -51.5056    1.0000 </r>
       <r>  -50.0169    1.0000 </r>
       <r>  -28.9525    1.0000 </r>
       <r>  -28.9496    1.0000 </r>
       <r>  -27.8062    1.0000 </r>
       <r>  -27.8059    1.0000 </r>
       <r>  -27.7510    1.0000 </r>
       <r>  -26.2760    1.0000 </r>
       <r>  -26.2268    1.0000 </r>
       <r>  -26.2262    1.0000 </r>
       <r>  -13.1843    1.0000 </r>
       <r>  -12.9660    1.0000 </r>
       <r>  -12.5209    1.0000 </r>
       <r>  -12.1073    1.0000 </r>
       <r>  -12.0790    1.0000 </r>
       <r>  -11.9009    1.0000 </r>
       <r>  -10.9621    1.0000 </r>
       <r>  -10.8662    1.0000 </r>
       <r>  -10.7098    1.0000 </r>
       <r>  -10.6753    1.0000 </r>
       <r>  -10.6445    1.0000 </r>
       <r>  -10.4141    1.0000 </r>
       <r>   -0.4691    1.0000 </r>
       <r>   -0.0292    1.0000 </r>
       <r>    0.0380    1.0000 </r>
       <r>    0.0933    1.0000 </r>
       <r>    0.3648    1.0000 </r>
       <r>    0.9890    1.0000 </r>
       <r>    1.2763    1.0000 </r>
       <r>    1.4813    1.0000 </r>
       <r>    1.5712    1.0000 </r>
       <r>    1.6724    1.0000 </r>
       <r>    2.2213    1.0000 </r>
       <r>    2.3386    1.0000 </r>
       <r>    2.5336    1.0000 </r>
       <r>    2.6178    1.0000 </r>
       <r>    2.8519    1.0000 </r>
       <r>    2.8850    1.0000 </r>
       <r>    3.4662    1.0000 </r>
       <r>    3.4669    1.0000 </r>
       <r>    7.4927   -0.0614 </r>
       <r>    7.6058    0.0000 </r>
       <r>    8.1861    0.0000 </r>
       <r>    8.4439    0.0000 </r>
       <r>    8.5575    0.0000 </r>
       <r>    8.6277    0.0000 </r>
       <r>    9.8775    0.0000 </r>
       <r>   10.2434    0.0000 </r>
      </set>
      <set comment="kpoint 19">
       <r>  -51.5052    1.0000 </r>
       <r>  -50.0160    1.0000 </r>
       <r>  -28.9624    1.0000 </r>
       <r>  -28.9303    1.0000 </r>
       <r>  -27.8069    1.0000 </r>
       <r>  -27.8069    1.0000 </r>
       <r>  -27.7672    1.0000 </r>
       <r>  -26.3281    1.0000 </r>
       <r>  -26.2257    1.0000 </r>
       <r>  -26.2257    1.0000 </r>
       <r>  -13.3172    1.0000 </r>
       <r>  -12.3965    1.0000 </r>
       <r>  -12.3307    1.0000 </r>
       <r>  -11.9108    1.0000 </r>
       <r>  -11.9108    1.0000 </r>
       <r>  -11.5075    1.0000 </r>
       <r>  -11.1080    1.0000 </r>
       <r>  -11.0396    1.0000 </r>
       <r>  -11.0396    1.0000 </r>
       <r>  -10.8934    1.0000 </r>
       <r>  -10.8934    1.0000 </r>
       <r>  -10.5121    1.0000 </r>
       <r>   -0.7923    1.0000 </r>
       <r>   -0.2410    1.0000 </r>
       <r>   -0.2346    1.0000 </r>
       <r>    0.1503    1.0000 </r>
       <r>    0.2059    1.0000 </r>
       <r>    0.2059    1.0000 </r>
       <r>    0.8924    1.0000 </r>
       <r>    1.5424    1.0000 </r>
       <r>    1.5424    1.0000 </r>
       <r>    1.8370    1.0000 </r>
       <r>    2.0303    1.0000 </r>
       <r>    2.0303    1.0000 </r>
       <r>    2.2630    1.0000 </r>
       <r>    3.3143    1.0000 </r>
       <r>    3.3143    1.0000 </r>
       <r>    3.8721    1.0000 </r>
       <r>    3.8721    1.0000 </r>
       <r>    3.9728    1.0000 </r>
       <r>    6.4555    1.1220 </r>
       <r>    8.1047    0.0000 </r>
       <r>    8.1047    0.0000 </r>
       <r>    9.1382    0.0000 </r>
       <r>    9.1382    0.0000 </r>
       <r>    9.2614    0.0000 </r>
       <r>    9.2828    0.0000 </r>
       <r>   10.5430    0.0000 </r>
      </set>
      <set comment="kpoint 20">
       <r>  -51.5052    1.0000 </r>
       <r>  -50.0160    1.0000 </r>
       <r>  -28.9590    1.0000 </r>
       <r>  -28.9330    1.0000 </r>
       <r>  -27.8065    1.0000 </r>
[...]
       <r>  -28.9386    1.0000 </r>
       <r>  -27.8065    1.0000 </r>
       <r>  -27.8058    1.0000 </r>
       <r>  -27.7769    1.0000 </r>
       <r>  -26.3539    1.0000 </r>
       <r>  -26.2271    1.0000 </r>
       <r>  -26.2258    1.0000 </r>
       <r>  -12.8979    1.0000 </r>
       <r>  -12.5215    1.0000 </r>
       <r>  -12.4075    1.0000 </r>
       <r>  -12.2714    1.0000 </r>
       <r>  -12.0239    1.0000 </r>
       <r>  -11.8651    1.0000 </r>
       <r>  -11.0154    1.0000 </r>
       <r>  -10.8941    1.0000 </r>
       <r>  -10.7824    1.0000 </r>
       <r>  -10.7005    1.0000 </r>
       <r>  -10.5770    1.0000 </r>
       <r>  -10.4991    1.0000 </r>
       <r>   -1.1719    1.0000 </r>
       <r>   -0.3791    1.0000 </r>
       <r>   -0.1954    1.0000 </r>
       <r>   -0.1833    1.0000 </r>
       <r>    0.4227    1.0000 </r>
       <r>    0.6659    1.0000 </r>
       <r>    0.7782    1.0000 </r>
       <r>    0.9809    1.0000 </r>
       <r>    1.3255    1.0000 </r>
       <r>    1.3446    1.0000 </r>
       <r>    1.5899    1.0000 </r>
       <r>    2.2991    1.0000 </r>
       <r>    2.6008    1.0000 </r>
       <r>    2.7612    1.0000 </r>
       <r>    3.0835    1.0000 </r>
       <r>    3.1230    1.0000 </r>
       <r>    3.6817    1.0000 </r>
       <r>    3.9077    1.0000 </r>
       <r>    7.8766   -0.0092 </r>
       <r>    8.4388    0.0000 </r>
       <r>    8.5423    0.0000 </r>
       <r>    8.5484    0.0000 </r>
       <r>    8.8680    0.0000 </r>
       <r>    9.1062    0.0000 </r>
       <r>   10.2504    0.0000 </r>
       <r>   11.0406    0.0000 </r>
      </set>
      <set comment="kpoint 30">
       <r>  -51.5051    1.0000 </r>
       <r>  -50.0156    1.0000 </r>
       <r>  -28.9433    1.0000 </r>
       <r>  -28.9402    1.0000 </r>
       <r>  -27.8070    1.0000 </r>
       <r>  -27.8066    1.0000 </r>
       <r>  -27.7780    1.0000 </r>
       <r>  -26.3555    1.0000 </r>
       <r>  -26.2261    1.0000 </r>
       <r>  -26.2254    1.0000 </r>
       <r>  -12.7531    1.0000 </r>
       <r>  -12.6038    1.0000 </r>
       <r>  -12.4997    1.0000 </r>
       <r>  -12.2448    1.0000 </r>
       <r>  -12.2232    1.0000 </r>
       <r>  -11.9895    1.0000 </r>
       <r>  -10.9334    1.0000 </r>
       <r>  -10.8349    1.0000 </r>
       <r>  -10.7065    1.0000 </r>
       <r>  -10.5819    1.0000 </r>
       <r>  -10.5449    1.0000 </r>
       <r>  -10.3891    1.0000 </r>
       <r>   -1.1814    1.0000 </r>
       <r>   -0.5529    1.0000 </r>
       <r>   -0.5328    1.0000 </r>
       <r>   -0.5141    1.0000 </r>
       <r>    0.0866    1.0000 </r>
       <r>    0.6841    1.0000 </r>
       <r>    0.8939    1.0000 </r>
       <r>    1.2666    1.0000 </r>
       <r>    1.4750    1.0000 </r>
       <r>    1.4829    1.0000 </r>
       <r>    2.2343    1.0000 </r>
       <r>    2.4217    1.0000 </r>
       <r>    2.5053    1.0000 </r>
       <r>    2.5402    1.0000 </r>
       <r>    2.6956    1.0000 </r>
       <r>    2.7798    1.0000 </r>
       <r>    3.8746    1.0000 </r>
       <r>    3.9467    1.0000 </r>
       <r>    8.2036    0.0000 </r>
       <r>    8.4026    0.0000 </r>
       <r>    8.4541    0.0000 </r>
       <r>    8.5966    0.0000 </r>
       <r>    9.0304    0.0000 </r>
       <r>    9.1570    0.0000 </r>
       <r>    9.9497    0.0000 </r>
       <r>   10.6147    0.0000 </r>
      </set>
     </set>
    </set>
   </array>
  </eigenvalues>
  <separator name="orbital magnetization" >
   <v name="MAGDIPOLOUT">      0.00000000      0.00000000      0.00000000</v>
  </separator>
  <dos>
   <i name="efermi">      6.94087610 </i>
   <total>
    <array>
     <dimension dim="1">gridpoints</dimension>
     <dimension dim="2">spin</dimension>
     <field>energy</field>
     <field>total</field>
     <field>integrated</field>
     <set>
      <set comment="spin 1">
       <r>   -54.6493     0.0000     0.0000 </r>
       <r>   -54.4188     0.0000     0.0000 </r>
       <r>   -54.1883     0.0000     0.0000 </r>
       <r>   -53.9578     0.0000     0.0000 </r>
       <r>   -53.7273     0.0000     0.0000 </r>
       <r>   -53.4968     0.0000     0.0000 </r>
       <r>   -53.2663     0.0000     0.0000 </r>
       <r>   -53.0358     0.0000     0.0000 </r>
       <r>   -52.8053     0.0000     0.0000 </r>
       <r>   -52.5748     0.0000     0.0000 </r>
       <r>   -52.3443     0.0000     0.0000 </r>
       <r>   -52.1138     0.0000     0.0000 </r>
       <r>   -51.8833     0.0000     0.0000 </r>
       <r>   -51.6528     0.0000     0.0000 </r>
       <r>   -51.4223     0.0000     2.0000 </r>
       <r>   -51.1918     0.0000     2.0000 </r>
       <r>   -50.9613     0.0000     2.0000 </r>
       <r>   -50.7308     0.0000     2.0000 </r>
       <r>   -50.5003     0.0000     2.0000 </r>
       <r>   -50.2698     0.0000     2.0000 </r>
       <r>   -50.0393     0.0000     2.0000 </r>
       <r>   -49.8088     0.0000     4.0000 </r>
       <r>   -49.5783     0.0000     4.0000 </r>
       <r>   -49.3478     0.0000     4.0000 </r>
       <r>   -49.1173     0.0000     4.0000 </r>
       <r>   -48.8868     0.0000     4.0000 </r>
       <r>   -48.6563     0.0000     4.0000 </r>
       <r>   -48.4258     0.0000     4.0000 </r>
       <r>   -48.1953     0.0000     4.0000 </r>
       <r>   -47.9648     0.0000     4.0000 </r>
       <r>   -47.7343     0.0000     4.0000 </r>
       <r>   -47.5038     0.0000     4.0000 </r>
       <r>   -47.2733     0.0000     4.0000 </r>
       <r>   -47.0428     0.0000     4.0000 </r>
       <r>   -46.8123     0.0000     4.0000 </r>
       <r>   -46.5818     0.0000     4.0000 </r>
       <r>   -46.3513     0.0000     4.0000 </r>
       <r>   -46.1208     0.0000     4.0000 </r>
       <r>   -45.8903     0.0000     4.0000 </r>
       <r>   -45.6598     0.0000     4.0000 </r>
       <r>   -45.4293     0.0000     4.0000 </r>
       <r>   -45.1988     0.0000     4.0000 </r>
       <r>   -44.9683     0.0000     4.0000 </r>
       <r>   -44.7378     0.0000     4.0000 </r>
       <r>   -44.5073     0.0000     4.0000 </r>
       <r>   -44.2768     0.0000     4.0000 </r>
       <r>   -44.0463     0.0000     4.0000 </r>
       <r>   -43.8158     0.0000     4.0000 </r>
       <r>   -43.5853     0.0000     4.0000 </r>
       <r>   -43.3548     0.0000     4.0000 </r>
       <r>   -43.1243     0.0000     4.0000 </r>
       <r>   -42.8938     0.0000     4.0000 </r>
       <r>   -42.6633     0.0000     4.0000 </r>
       <r>   -42.4328     0.0000     4.0000 </r>
       <r>   -42.2023     0.0000     4.0000 </r>
       <r>   -41.9718     0.0000     4.0000 </r>
       <r>   -41.7413     0.0000     4.0000 </r>
       <r>   -41.5107     0.0000     4.0000 </r>
       <r>   -41.2802     0.0000     4.0000 </r>
       <r>   -41.0497     0.0000     4.0000 </r>
       <r>   -40.8192     0.0000     4.0000 </r>
       <r>   -40.5887     0.0000     4.0000 </r>
       <r>   -40.3582     0.0000     4.0000 </r>
       <r>   -40.1277     0.0000     4.0000 </r>
       <r>   -39.8972     0.0000     4.0000 </r>
       <r>   -39.6667     0.0000     4.0000 </r>
       <r>   -39.4362     0.0000     4.0000 </r>
       <r>   -39.2057     0.0000     4.0000 </r>
       <r>   -38.9752     0.0000     4.0000 </r>
       <r>   -38.7447     0.0000     4.0000 </r>
       <r>   -38.5142     0.0000     4.0000 </r>
       <r>   -38.2837     0.0000     4.0000 </r>
       <r>   -38.0532     0.0000     4.0000 </r>
       <r>   -37.8227     0.0000     4.0000 </r>
       <r>   -37.5922     0.0000     4.0000 </r>
       <r>   -37.3617     0.0000     4.0000 </r>
       <r>   -37.1312     0.0000     4.0000 </r>
       <r>   -36.9007     0.0000     4.0000 </r>
       <r>   -36.6702     0.0000     4.0000 </r>
       <r>   -36.4397     0.0000     4.0000 </r>
       <r>   -36.2092     0.0000     4.0000 </r>
       <r>   -35.9787     0.0000     4.0000 </r>
       <r>   -35.7482     0.0000     4.0000 </r>
       <r>   -35.5177     0.0000     4.0000 </r>
       <r>   -35.2872     0.0000     4.0000 </r>
       <r>   -35.0567     0.0000     4.0000 </r>
       <r>   -34.8262     0.0000     4.0000 </r>
       <r>   -34.5957     0.0000     4.0000 </r>
       <r>   -34.3652     0.0000     4.0000 </r>
       <r>   -34.1347     0.0000     4.0000 </r>
       <r>   -33.9042     0.0000     4.0000 </r>
       <r>   -33.6737     0.0000     4.0000 </r>
       <r>   -33.4432     0.0000     4.0000 </r>
       <r>   -33.2127     0.0000     4.0000 </r>
       <r>   -32.9822     0.0000     4.0000 </r>
       <r>   -32.7517     0.0000     4.0000 </r>
       <r>   -32.5212     0.0000     4.0000 </r>
       <r>   -32.2907     0.0000     4.0000 </r>
       <r>   -32.0602     0.0000     4.0000 </r>
       <r>   -31.8297     0.0000     4.0000 </r>
       <r>   -31.5992     0.0000     4.0000 </r>
       <r>   -31.3687     0.0000     4.0000 </r>
       <r>   -31.1382     0.0000     4.0000 </r>
       <r>   -30.9077     0.0000     4.0000 </r>
       <r>   -30.6772     0.0000     4.0000 </r>
       <r>   -30.4467     0.0000     4.0000 </r>
       <r>   -30.2162     0.0000     4.0000 </r>
       <r>   -29.9857     0.0000     4.0000 </r>
       <r>   -29.7552     0.0000     4.0000 </r>
       <r>   -29.5247     0.0000     4.0000 </r>
       <r>   -29.2942     0.0000     4.0000 </r>
       <r>   -29.0637     0.0000     4.0000 </r>
       <r>   -28.8332     0.0000     8.0000 </r>
       <r>   -28.6027     0.0000     8.0000 </r>
       <r>   -28.3722     0.0000     8.0000 </r>
       <r>   -28.1417     0.0000     8.0000 </r>
       <r>   -27.9112     0.0000     8.0000 </r>
       <r>   -27.6807     0.0000    14.0000 </r>
       <r>   -27.4502     0.0000    14.0000 </r>
       <r>   -27.2197     0.0000    14.0000 </r>
       <r>   -26.9892     0.0000    14.0000 </r>
       <r>   -26.7587     0.0000    14.0000 </r>
       <r>   -26.5282     0.0000    14.0000 </r>
       <r>   -26.2977     8.9884    14.7948 </r>
       <r>   -26.0672     0.0000    20.0000 </r>
       <r>   -25.8367     0.0000    20.0000 </r>
       <r>   -25.6062     0.0000    20.0000 </r>
       <r>   -25.3757     0.0000    20.0000 </r>
       <r>   -25.1452     0.0000    20.0000 </r>
       <r>   -24.9147     0.0000    20.0000 </r>
       <r>   -24.6842     0.0000    20.0000 </r>
       <r>   -24.4537     0.0000    20.0000 </r>
       <r>   -24.2232     0.0000    20.0000 </r>
       <r>   -23.9927     0.0000    20.0000 </r>
       <r>   -23.7622     0.0000    20.0000 </r>
       <r>   -23.5317     0.0000    20.0000 </r>
       <r>   -23.3012     0.0000    20.0000 </r>
       <r>   -23.0707     0.0000    20.0000 </r>
       <r>   -22.8402     0.0000    20.0000 </r>
       <r>   -22.6097     0.0000    20.0000 </r>
       <r>   -22.3792     0.0000    20.0000 </r>
       <r>   -22.1487     0.0000    20.0000 </r>
       <r>   -21.9182     0.0000    20.0000 </r>
       <r>   -21.6877     0.0000    20.0000 </r>
       <r>   -21.4572     0.0000    20.0000 </r>
       <r>   -21.2267     0.0000    20.0000 </r>
       <r>   -20.9962     0.0000    20.0000 </r>
       <r>   -20.7657     0.0000    20.0000 </r>
       <r>   -20.5352     0.0000    20.0000 </r>
       <r>   -20.3047     0.0000    20.0000 </r>
       <r>   -20.0742     0.0000    20.0000 </r>
       <r>   -19.8437     0.0000    20.0000 </r>
       <r>   -19.6132     0.0000    20.0000 </r>
       <r>   -19.3827     0.0000    20.0000 </r>
       <r>   -19.1522     0.0000    20.0000 </r>
       <r>   -18.9217     0.0000    20.0000 </r>
       <r>   -18.6912     0.0000    20.0000 </r>
       <r>   -18.4607     0.0000    20.0000 </r>
       <r>   -18.2302     0.0000    20.0000 </r>
       <r>   -17.9997     0.0000    20.0000 </r>
       <r>   -17.7692     0.0000    20.0000 </r>
       <r>   -17.5387     0.0000    20.0000 </r>
       <r>   -17.3082     0.0000    20.0000 </r>
       <r>   -17.0777     0.0000    20.0000 </r>
       <r>   -16.8472     0.0000    20.0000 </r>
       <r>   -16.6167     0.0000    20.0000 </r>
       <r>   -16.3862     0.0000    20.0000 </r>
       <r>   -16.1557     0.0000    20.0000 </r>
       <r>   -15.9252     0.0000    20.0000 </r>
       <r>   -15.6947     0.0000    20.0000 </r>
       <r>   -15.4642     0.0000    20.0000 </r>
       <r>   -15.2337     0.0000    20.0000 </r>
       <r>   -15.0032     0.0000    20.0000 </r>
       <r>   -14.7727     0.0000    20.0000 </r>
       <r>   -14.5422     0.0000    20.0000 </r>
       <r>   -14.3117     0.0000    20.0000 </r>
       <r>   -14.0812     0.0000    20.0000 </r>
       <r>   -13.8507     0.0000    20.0000 </r>
       <r>   -13.6202     0.2117    20.0015 </r>
       <r>   -13.3897     2.9687    20.3778 </r>
       <r>   -13.1592     4.5285    21.1081 </r>
       <r>   -12.9286     6.2418    22.1236 </r>
       <r>   -12.6981     2.2936    23.2699 </r>
       <r>   -12.4676    10.9278    24.9956 </r>
       <r>   -12.2371    11.1062    26.9470 </r>
       <r>   -12.0066     7.6019    29.4723 </r>
       <r>   -11.7761     8.7634    31.4871 </r>
       <r>   -11.5456     0.3347    31.9872 </r>
       <r>   -11.3151     0.0000    32.0000 </r>
       <r>   -11.0846     3.8876    32.1040 </r>
       <r>   -10.8541    23.7372    36.9299 </r>
       <r>   -10.6236    19.9607    41.3961 </r>
       <r>   -10.3931     3.6888    43.9709 </r>
       <r>   -10.1626     0.0000    44.0000 </r>
       <r>    -9.9321     0.0000    44.0000 </r>
       <r>    -9.7016     0.0000    44.0000 </r>
       <r>    -9.4711     0.0000    44.0000 </r>
       <r>    -9.2406     0.0000    44.0000 </r>
       <r>    -9.0101     0.0000    44.0000 </r>
       <r>    -8.7796     0.0000    44.0000 </r>
       <r>    -8.5491     0.0000    44.0000 </r>
       <r>    -8.3186     0.0000    44.0000 </r>
       <r>    -8.0881     0.0000    44.0000 </r>
       <r>    -7.8576     0.0000    44.0000 </r>
       <r>    -7.6271     0.0000    44.0000 </r>
       <r>    -7.3966     0.0000    44.0000 </r>
       <r>    -7.1661     0.0000    44.0000 </r>
       <r>    -6.9356     0.0000    44.0000 </r>
       <r>    -6.7051     0.0000    44.0000 </r>
       <r>    -6.4746     0.0000    44.0000 </r>
       <r>    -6.2441     0.0000    44.0000 </r>
       <r>    -6.0136     0.0000    44.0000 </r>
       <r>    -5.7831     0.0000    44.0000 </r>
       <r>    -5.5526     0.0000    44.0000 </r>
       <r>    -5.3221     0.0000    44.0000 </r>
       <r>    -5.0916     0.0000    44.0000 </r>
       <r>    -4.8611     0.0000    44.0000 </r>
       <r>    -4.6306     0.0000    44.0000 </r>
       <r>    -4.4001     0.0000    44.0000 </r>
       <r>    -4.1696     0.0000    44.0000 </r>
       <r>    -3.9391     0.0000    44.0000 </r>
       <r>    -3.7086     0.0000    44.0000 </r>
       <r>    -3.4781     0.0000    44.0000 </r>
       <r>    -3.2476     0.0000    44.0000 </r>
       <r>    -3.0171     0.0000    44.0000 </r>
       <r>    -2.7866     0.0000    44.0000 </r>
       <r>    -2.5561     0.0000    44.0000 </r>
       <r>    -2.3256     0.0000    44.0000 </r>
       <r>    -2.0951     0.0000    44.0000 </r>
       <r>    -1.8646     0.0000    44.0000 </r>
       <r>    -1.6341     0.0000    44.0000 </r>
       <r>    -1.4036     0.0000    44.0000 </r>
       <r>    -1.1731     0.3235    44.0014 </r>
       <r>    -0.9426     1.2427    44.2844 </r>
       <r>    -0.7121     1.0113    44.5589 </r>
       <r>    -0.4816     2.0546    44.8469 </r>
       <r>    -0.2511     8.3506    46.0245 </r>
       <r>    -0.0206     7.9822    47.9268 </r>
       <r>     0.2099     7.7241    49.8275 </r>
       <r>     0.4404     7.2684    51.7464 </r>
       <r>     0.6709     5.2682    53.0557 </r>
       <r>     0.9014     7.4001    54.7579 </r>
       <r>     1.1319     7.2399    56.3406 </r>
       <r>     1.3624    11.8684    58.7470 </r>
       <r>     1.5929     8.8710    62.2211 </r>
       <r>     1.8234     4.7695    63.8376 </r>
       <r>     2.0539     6.0797    65.0549 </r>
       <r>     2.2844     7.1550    66.6595 </r>
       <r>     2.5149     4.2214    67.8564 </r>
       <r>     2.7454     9.9146    69.8979 </r>
       <r>     2.9759     8.5915    72.2846 </r>
       <r>     3.2064     7.4191    74.6950 </r>
       <r>     3.4369    10.3418    76.5761 </r>
       <r>     3.6674     6.8002    78.4721 </r>
       <r>     3.8979     4.3220    79.7775 </r>
       <r>     4.1284     0.0000    80.0000 </r>
       <r>     4.3589     0.0000    80.0000 </r>
       <r>     4.5894     0.0000    80.0000 </r>
       <r>     4.8199     0.0000    80.0000 </r>
       <r>     5.0504     0.0000    80.0000 </r>
       <r>     5.2809     0.0000    80.0000 </r>
       <r>     5.5114     0.0000    80.0000 </r>
       <r>     5.7419     0.0000    80.0000 </r>
       <r>     5.9724     0.0000    80.0000 </r>
       <r>     6.2029     0.0000    80.0000 </r>
       <r>     6.4334     0.5335    80.0402 </r>
       <r>     6.6639     1.9479    80.3392 </r>
       <r>     6.8944     2.4852    80.8822 </r>
       <r>     7.1249     2.9487    81.5049 </r>
       <r>     7.3554     2.7379    82.2294 </r>
       <r>     7.5859     3.5943    82.9219 </r>
       <r>     7.8164     5.3833    83.8808 </r>
       <r>     8.0469     5.0666    84.9928 </r>
       <r>     8.2774     8.2335    86.4363 </r>
       <r>     8.5079     8.7883    88.7350 </r>
       <r>     8.7384     4.6603    90.2298 </r>
       <r>     8.9689     4.2900    91.3098 </r>
       <r>     9.1994     1.4107    91.9544 </r>
       <r>     9.4299     1.6074    92.2683 </r>
       <r>     9.6604     2.3340    92.6971 </r>
       <r>     9.8909     2.7200    93.2764 </r>
       <r>    10.1214     2.9710    93.9834 </r>
       <r>    10.3519     2.1830    94.5719 </r>
       <r>    10.5824     2.0875    95.0328 </r>
       <r>    10.8129     1.5779    95.4050 </r>
       <r>    11.0434     1.5721    95.8024 </r>
       <r>    11.2739     0.2416    95.9907 </r>
       <r>    11.5044     0.0000    96.0000 </r>
       <r>    11.7349     0.0000    96.0000 </r>
       <r>    11.9654     0.0000    96.0000 </r>
       <r>    12.1959     0.0000    96.0000 </r>
       <r>    12.4264     0.0000    96.0000 </r>
       <r>    12.6569     0.0000    96.0000 </r>
       <r>    12.8874     0.0000    96.0000 </r>
       <r>    13.1179     0.0000    96.0000 </r>
       <r>    13.3484     0.0000    96.0000 </r>
       <r>    13.5789     0.0000    96.0000 </r>
       <r>    13.8094     0.0000    96.0000 </r>
       <r>    14.0399     0.0000    96.0000 </r>
       <r>    14.2704     0.0000    96.0000 </r>
       <r>    14.5009     0.0000    96.0000 </r>
      </set>
     </set>
    </array>
   </total>
  </dos>
 </calculation>
 <structure name="finalpos" >
  <crystal>
   <varray name="basis" >
    <v>       0.00000000      -3.99952465      -3.99952465 </v>
    <v>       0.00000000       3.99952465      -3.99952465 </v>
    <v>       4.00870296       0.00000000       0.00000000 </v>
   </varray>
   <i name="volume">    128.24800766 </i>
   <varray name="rec_basis" >
    <v>       0.00000000      -0.12501486      -0.12501486 </v>
    <v>       0.00000000       0.12501486      -0.12501486 </v>
    <v>       0.24945725       0.00000000       0.00000000 </v>
   </varray>
  </crystal>
  <varray name="positions" >
   <v>       0.00000000       0.50000000       0.50000000 </v>
   <v>       0.00000000       0.50000000       0.00000000 </v>
   <v>       0.74937669       0.75062331       0.50000000 </v>
   <v>       0.74937669       0.24937669       0.50000000 </v>
   <v>       0.50000000       0.00000000       0.00000000 </v>
   <v>       0.25062331       0.24937669       0.50000000 </v>
   <v>       0.25062331       0.75062331       0.50000000 </v>
   <v>       0.50000000       0.50000000       0.00000000 </v>
   <v>       0.00000000       0.00000000       0.00000000 </v>
   <v>       0.50000000       0.00000000       0.50000000 </v>
  </varray>
 </structure>
</modeling>
