  10  10   0   0
  0.1283508E+02  0.4004115E-09  0.4004115E-09  0.8005447E-09  0.5000000E-15
  1.000000000000000E-004
  CAR 
 unknown system                          
     14.67428124    -54.75433231  301      6.90985209      1.00000000
    -54.754  0.0000E+00  0.0000E+00
    -54.523  0.0000E+00  0.0000E+00
    -54.291  0.0000E+00  0.0000E+00
    -54.060  0.0000E+00  0.0000E+00
    -53.829  0.0000E+00  0.0000E+00
    -53.597  0.0000E+00  0.0000E+00
    -53.366  0.0000E+00  0.0000E+00
    -53.134  0.0000E+00  0.0000E+00
    -52.903  0.0000E+00  0.0000E+00
    -52.671  0.0000E+00  0.0000E+00
    -52.440  0.0000E+00  0.0000E+00
    -52.209  0.0000E+00  0.0000E+00
    -51.977  0.0000E+00  0.0000E+00
    -51.746  0.0000E+00  0.0000E+00
    -51.514  0.0000E+00  0.2000E+01
    -51.283  0.0000E+00  0.2000E+01
    -51.051  0.0000E+00  0.2000E+01
    -50.820  0.0000E+00  0.2000E+01
    -50.589  0.0000E+00  0.2000E+01
    -50.357  0.0000E+00  0.2000E+01
    -50.126  0.0000E+00  0.2000E+01
    -49.894  0.0000E+00  0.4000E+01
    -49.663  0.0000E+00  0.4000E+01
    -49.431  0.0000E+00  0.4000E+01
    -49.200  0.0000E+00  0.4000E+01
    -48.969  0.0000E+00  0.4000E+01
    -48.737  0.0000E+00  0.4000E+01
    -48.506  0.0000E+00  0.4000E+01
    -48.274  0.0000E+00  0.4000E+01
    -48.043  0.0000E+00  0.4000E+01
    -47.811  0.0000E+00  0.4000E+01
    -47.580  0.0000E+00  0.4000E+01
    -47.349  0.0000E+00  0.4000E+01
    -47.117  0.0000E+00  0.4000E+01
    -46.886  0.0000E+00  0.4000E+01
    -46.654  0.0000E+00  0.4000E+01
    -46.423  0.0000E+00  0.4000E+01
    -46.191  0.0000E+00  0.4000E+01
    -45.960  0.0000E+00  0.4000E+01
    -45.729  0.0000E+00  0.4000E+01
    -45.497  0.0000E+00  0.4000E+01
    -45.266  0.0000E+00  0.4000E+01
    -45.034  0.0000E+00  0.4000E+01
    -44.803  0.0000E+00  0.4000E+01
    -44.571  0.0000E+00  0.4000E+01
    -44.340  0.0000E+00  0.4000E+01
    -44.109  0.0000E+00  0.4000E+01
    -43.877  0.0000E+00  0.4000E+01
    -43.646  0.0000E+00  0.4000E+01
    -43.414  0.0000E+00  0.4000E+01
    -43.183  0.0000E+00  0.4000E+01
    -42.951  0.0000E+00  0.4000E+01
    -42.720  0.0000E+00  0.4000E+01
    -42.489  0.0000E+00  0.4000E+01
    -42.257  0.0000E+00  0.4000E+01
    -42.026  0.0000E+00  0.4000E+01
    -41.794  0.0000E+00  0.4000E+01
    -41.563  0.0000E+00  0.4000E+01
    -41.331  0.0000E+00  0.4000E+01
    -41.100  0.0000E+00  0.4000E+01
    -40.869  0.0000E+00  0.4000E+01
    -40.637  0.0000E+00  0.4000E+01
    -40.406  0.0000E+00  0.4000E+01
    -40.174  0.0000E+00  0.4000E+01
    -39.943  0.0000E+00  0.4000E+01
    -39.711  0.0000E+00  0.4000E+01
    -39.480  0.0000E+00  0.4000E+01
    -39.249  0.0000E+00  0.4000E+01
    -39.017  0.0000E+00  0.4000E+01
    -38.786  0.0000E+00  0.4000E+01
    -38.554  0.0000E+00  0.4000E+01
    -38.323  0.0000E+00  0.4000E+01
    -38.091  0.0000E+00  0.4000E+01
    -37.860  0.0000E+00  0.4000E+01
    -37.629  0.0000E+00  0.4000E+01
    -37.397  0.0000E+00  0.4000E+01
    -37.166  0.0000E+00  0.4000E+01
    -36.934  0.0000E+00  0.4000E+01
    -36.703  0.0000E+00  0.4000E+01
    -36.471  0.0000E+00  0.4000E+01
    -36.240  0.0000E+00  0.4000E+01
    -36.009  0.0000E+00  0.4000E+01
    -35.777  0.0000E+00  0.4000E+01
    -35.546  0.0000E+00  0.4000E+01
    -35.314  0.0000E+00  0.4000E+01
    -35.083  0.0000E+00  0.4000E+01
    -34.851  0.0000E+00  0.4000E+01
    -34.620  0.0000E+00  0.4000E+01
    -34.389  0.0000E+00  0.4000E+01
    -34.157  0.0000E+00  0.4000E+01
    -33.926  0.0000E+00  0.4000E+01
    -33.694  0.0000E+00  0.4000E+01
    -33.463  0.0000E+00  0.4000E+01
    -33.231  0.0000E+00  0.4000E+01
    -33.000  0.0000E+00  0.4000E+01
    -32.769  0.0000E+00  0.4000E+01
    -32.537  0.0000E+00  0.4000E+01
    -32.306  0.0000E+00  0.4000E+01
    -32.074  0.0000E+00  0.4000E+01
    -31.843  0.0000E+00  0.4000E+01
    -31.611  0.0000E+00  0.4000E+01
    -31.380  0.0000E+00  0.4000E+01
    -31.149  0.0000E+00  0.4000E+01
    -30.917  0.0000E+00  0.4000E+01
    -30.686  0.0000E+00  0.4000E+01
    -30.454  0.0000E+00  0.4000E+01
    -30.223  0.0000E+00  0.4000E+01
    -29.991  0.0000E+00  0.4000E+01
    -29.760  0.0000E+00  0.4000E+01
    -29.529  0.0000E+00  0.4000E+01
    -29.297  0.0000E+00  0.4000E+01
    -29.066  0.0000E+00  0.4000E+01
    -28.834  0.0000E+00  0.8000E+01
    -28.603  0.0000E+00  0.8000E+01
    -28.371  0.0000E+00  0.8000E+01
    -28.140  0.0000E+00  0.8000E+01
    -27.909  0.1224E+03  0.8515E+01
    -27.677  0.0000E+00  0.1400E+02
    -27.446  0.0000E+00  0.1400E+02
    -27.214  0.0000E+00  0.1400E+02
    -26.983  0.0000E+00  0.1400E+02
    -26.751  0.0000E+00  0.1400E+02
    -26.520  0.0000E+00  0.1400E+02
    -26.289  0.4163E+02  0.1426E+02
    -26.057  0.0000E+00  0.2000E+02
    -25.826  0.0000E+00  0.2000E+02
    -25.594  0.0000E+00  0.2000E+02
    -25.363  0.0000E+00  0.2000E+02
    -25.131  0.0000E+00  0.2000E+02
    -24.900  0.0000E+00  0.2000E+02
    -24.669  0.0000E+00  0.2000E+02
    -24.437  0.0000E+00  0.2000E+02
    -24.206  0.0000E+00  0.2000E+02
    -23.974  0.0000E+00  0.2000E+02
    -23.743  0.0000E+00  0.2000E+02
    -23.511  0.0000E+00  0.2000E+02
    -23.280  0.0000E+00  0.2000E+02
    -23.049  0.0000E+00  0.2000E+02
    -22.817  0.0000E+00  0.2000E+02
    -22.586  0.0000E+00  0.2000E+02
    -22.354  0.0000E+00  0.2000E+02
    -22.123  0.0000E+00  0.2000E+02
    -21.891  0.0000E+00  0.2000E+02
    -21.660  0.0000E+00  0.2000E+02
    -21.429  0.0000E+00  0.2000E+02
    -21.197  0.0000E+00  0.2000E+02
    -20.966  0.0000E+00  0.2000E+02
    -20.734  0.0000E+00  0.2000E+02
    -20.503  0.0000E+00  0.2000E+02
    -20.271  0.0000E+00  0.2000E+02
    -20.040  0.0000E+00  0.2000E+02
    -19.809  0.0000E+00  0.2000E+02
    -19.577  0.0000E+00  0.2000E+02
    -19.346  0.0000E+00  0.2000E+02
    -19.114  0.0000E+00  0.2000E+02
    -18.883  0.0000E+00  0.2000E+02
    -18.651  0.0000E+00  0.2000E+02
    -18.420  0.0000E+00  0.2000E+02
    -18.189  0.0000E+00  0.2000E+02
    -17.957  0.0000E+00  0.2000E+02
    -17.726  0.0000E+00  0.2000E+02
    -17.494  0.0000E+00  0.2000E+02
    -17.263  0.0000E+00  0.2000E+02
    -17.031  0.0000E+00  0.2000E+02
    -16.800  0.0000E+00  0.2000E+02
    -16.569  0.0000E+00  0.2000E+02
    -16.337  0.0000E+00  0.2000E+02
    -16.106  0.0000E+00  0.2000E+02
    -15.874  0.0000E+00  0.2000E+02
    -15.643  0.0000E+00  0.2000E+02
    -15.411  0.0000E+00  0.2000E+02
    -15.180  0.0000E+00  0.2000E+02
    -14.949  0.0000E+00  0.2000E+02
    -14.717  0.0000E+00  0.2000E+02
    -14.486  0.0000E+00  0.2000E+02
    -14.254  0.0000E+00  0.2000E+02
    -14.023  0.0000E+00  0.2000E+02
    -13.791  0.0000E+00  0.2000E+02
    -13.560  0.0000E+00  0.2000E+02
    -13.329  0.3452E+01  0.2020E+02
    -13.097  0.2549E+01  0.2119E+02
    -12.866  0.7913E+01  0.2252E+02
    -12.634  0.4189E+01  0.2378E+02
    -12.403  0.1377E+02  0.2529E+02
    -12.171  0.8018E+01  0.2759E+02
    -11.940  0.2748E+02  0.3103E+02
    -11.709  0.0000E+00  0.3200E+02
    -11.477  0.0000E+00  0.3200E+02
    -11.246  0.0000E+00  0.3200E+02
    -11.014  0.6242E+01  0.3238E+02
    -10.783  0.1659E+02  0.3823E+02
    -10.551  0.1633E+02  0.4143E+02
    -10.320  0.0000E+00  0.4400E+02
    -10.089  0.0000E+00  0.4400E+02
     -9.857  0.0000E+00  0.4400E+02
     -9.626  0.0000E+00  0.4400E+02
     -9.394  0.0000E+00  0.4400E+02
     -9.163  0.0000E+00  0.4400E+02
     -8.931  0.0000E+00  0.4400E+02
     -8.700  0.0000E+00  0.4400E+02
     -8.469  0.0000E+00  0.4400E+02
     -8.237  0.0000E+00  0.4400E+02
     -8.006  0.0000E+00  0.4400E+02
     -7.774  0.0000E+00  0.4400E+02
     -7.543  0.0000E+00  0.4400E+02
     -7.311  0.0000E+00  0.4400E+02
     -7.080  0.0000E+00  0.4400E+02
     -6.849  0.0000E+00  0.4400E+02
     -6.617  0.0000E+00  0.4400E+02
     -6.386  0.0000E+00  0.4400E+02
     -6.154  0.0000E+00  0.4400E+02
     -5.923  0.0000E+00  0.4400E+02
     -5.691  0.0000E+00  0.4400E+02
     -5.460  0.0000E+00  0.4400E+02
     -5.229  0.0000E+00  0.4400E+02
     -4.997  0.0000E+00  0.4400E+02
     -4.766  0.0000E+00  0.4400E+02
     -4.534  0.0000E+00  0.4400E+02
     -4.303  0.0000E+00  0.4400E+02
     -4.071  0.0000E+00  0.4400E+02
     -3.840  0.0000E+00  0.4400E+02
     -3.609  0.0000E+00  0.4400E+02
     -3.377  0.0000E+00  0.4400E+02
     -3.146  0.0000E+00  0.4400E+02
     -2.914  0.0000E+00  0.4400E+02
     -2.683  0.0000E+00  0.4400E+02
     -2.451  0.0000E+00  0.4400E+02
     -2.220  0.0000E+00  0.4400E+02
     -1.989  0.0000E+00  0.4400E+02
     -1.757  0.0000E+00  0.4400E+02
     -1.526  0.0000E+00  0.4400E+02
     -1.294  0.0000E+00  0.4400E+02
     -1.063  0.8543E+00  0.4404E+02
     -0.831  0.2135E+01  0.4451E+02
     -0.600  0.2455E+01  0.4504E+02
     -0.369  0.3511E+01  0.4571E+02
     -0.137  0.7199E+01  0.4701E+02
      0.094  0.6222E+01  0.4860E+02
      0.326  0.6258E+01  0.5007E+02
      0.557  0.8762E+01  0.5184E+02
      0.789  0.8699E+01  0.5371E+02
      1.020  0.8934E+01  0.5568E+02
      1.251  0.1051E+02  0.5781E+02
      1.483  0.1457E+02  0.6102E+02
      1.714  0.6118E+01  0.6317E+02
      1.946  0.5786E+01  0.6445E+02
      2.177  0.7451E+01  0.6592E+02
      2.409  0.3887E+01  0.6747E+02
      2.640  0.8959E+01  0.6891E+02
      2.871  0.1244E+02  0.7149E+02
      3.103  0.7685E+01  0.7370E+02
      3.334  0.8831E+01  0.7618E+02
      3.566  0.7705E+01  0.7809E+02
      3.797  0.4762E+01  0.7937E+02
      4.029  0.8111E+00  0.7995E+02
      4.260  0.0000E+00  0.8000E+02
      4.491  0.0000E+00  0.8000E+02
      4.723  0.0000E+00  0.8000E+02
      4.954  0.0000E+00  0.8000E+02
      5.186  0.0000E+00  0.8000E+02
      5.417  0.0000E+00  0.8000E+02
      5.649  0.0000E+00  0.8000E+02
      5.880  0.0000E+00  0.8000E+02
      6.111  0.1184E+00  0.8001E+02
      6.343  0.4484E+00  0.8006E+02
      6.574  0.1475E+01  0.8028E+02
      6.806  0.2309E+01  0.8076E+02
      7.037  0.2375E+01  0.8129E+02
      7.269  0.2971E+01  0.8191E+02
      7.500  0.4215E+01  0.8271E+02
      7.731  0.4249E+01  0.8366E+02
      7.963  0.4943E+01  0.8471E+02
      8.194  0.1024E+02  0.8636E+02
      8.426  0.6923E+01  0.8865E+02
      8.657  0.4620E+01  0.8992E+02
      8.889  0.3864E+01  0.9082E+02
      9.120  0.3148E+01  0.9167E+02
      9.351  0.2635E+01  0.9232E+02
      9.583  0.2023E+01  0.9286E+02
      9.814  0.1532E+01  0.9327E+02
     10.046  0.1848E+01  0.9365E+02
     10.277  0.1733E+01  0.9406E+02
     10.509  0.1997E+01  0.9449E+02
     10.740  0.2088E+01  0.9496E+02
     10.971  0.2074E+01  0.9544E+02
     11.203  0.1180E+01  0.9590E+02
     11.434  0.5837E-01  0.9600E+02
     11.666  0.0000E+00  0.9600E+02
     11.897  0.0000E+00  0.9600E+02
     12.129  0.0000E+00  0.9600E+02
     12.360  0.0000E+00  0.9600E+02
     12.591  0.0000E+00  0.9600E+02
     12.823  0.0000E+00  0.9600E+02
     13.054  0.0000E+00  0.9600E+02
     13.286  0.0000E+00  0.9600E+02
     13.517  0.0000E+00  0.9600E+02
     13.749  0.0000E+00  0.9600E+02
     13.980  0.0000E+00  0.9600E+02
     14.211  0.0000E+00  0.9600E+02
     14.443  0.0000E+00  0.9600E+02
     14.674  0.0000E+00  0.9600E+02
