       N       E                     dE             d eps       ncg     rms          rms(c)
DAV:   1     0.921577334084E+03    0.92158E+03   -0.42174E+04  4320   0.174E+03
DAV:   2     0.157040236962E+02   -0.90587E+03   -0.87429E+03  5176   0.544E+02
DAV:   3    -0.897644705211E+02   -0.10547E+03   -0.10447E+03  5832   0.177E+02
DAV:   4    -0.972825613965E+02   -0.75181E+01   -0.74828E+01  7344   0.465E+01
DAV:   5    -0.976092939579E+02   -0.32673E+00   -0.32615E+00  6176   0.678E+00    0.334E+01
DAV:   6    -0.813135318802E+02    0.16296E+02   -0.10585E+02  6152   0.606E+01    0.217E+01
DAV:   7    -0.814926347963E+02   -0.17910E+00   -0.25862E+01  5920   0.262E+01    0.144E+01
DAV:   8    -0.810794260639E+02    0.41321E+00   -0.58976E+00  6008   0.140E+01    0.719E+00
DAV:   9    -0.809962722127E+02    0.83154E-01   -0.10878E+00  6424   0.543E+00    0.115E+00
DAV:  10    -0.809922772928E+02    0.39949E-02   -0.94058E-02  6984   0.164E+00    0.671E-01
DAV:  11    -0.809944531128E+02   -0.21758E-02   -0.16050E-02  6424   0.900E-01    0.173E-01
DAV:  12    -0.809944221452E+02    0.30968E-04   -0.17992E-03  5984   0.295E-01    0.756E-02
DAV:  13    -0.809943651373E+02    0.57008E-04   -0.61919E-04  6208   0.142E-01    0.327E-02
DAV:  14    -0.809944080033E+02   -0.42866E-04   -0.87332E-05  5080   0.522E-02    0.174E-02
DAV:  15    -0.809944185463E+02   -0.10543E-04   -0.13732E-05  3208   0.249E-02    0.661E-03
DAV:  16    -0.809944206841E+02   -0.21378E-05   -0.38451E-06  3240   0.153E-02
   1 F= -.80994421E+02 E0= -.80994421E+02  d E =-.809944E+02
       N       E                     dE             d eps       ncg     rms          rms(c)
DAV:   1    -0.860346603870E+02   -0.50402E+01   -0.16915E+02  5496   0.927E+01    0.195E+01
DAV:   2    -0.826876004922E+02    0.33471E+01   -0.31873E+01  6216   0.358E+01    0.854E+00
DAV:   3    -0.813909364891E+02    0.12967E+01   -0.99196E+00  6424   0.169E+01    0.661E+00
DAV:   4    -0.810230488542E+02    0.36789E+00   -0.47697E+00  6608   0.104E+01    0.377E+00
DAV:   5    -0.809849302292E+02    0.38119E-01   -0.66292E-01  7056   0.446E+00    0.277E+00
DAV:   6    -0.810093085520E+02   -0.24378E-01   -0.10422E-01  7704   0.135E+00    0.177E+00
DAV:   7    -0.810280451491E+02   -0.18737E-01   -0.92557E-02  7464   0.115E+00    0.287E-01
DAV:   8    -0.810270603592E+02    0.98479E-03   -0.89281E-03  7040   0.516E-01    0.289E-01
DAV:   9    -0.810274769230E+02   -0.41656E-03   -0.14216E-03  5312   0.204E-01    0.114E-01
DAV:  10    -0.810275830004E+02   -0.10608E-03   -0.56143E-04  6584   0.138E-01    0.352E-02
DAV:  11    -0.810276045218E+02   -0.21521E-04   -0.11743E-04  6504   0.578E-02    0.265E-02
DAV:  12    -0.810276154148E+02   -0.10893E-04   -0.28336E-05  4208   0.280E-02    0.112E-02
DAV:  13    -0.810276024433E+02    0.12971E-04   -0.25421E-05  3192   0.144E-02    0.590E-03
DAV:  14    -0.810276047986E+02   -0.23553E-05   -0.20449E-06  3136   0.990E-03
   2 F= -.81027605E+02 E0= -.81027605E+02  d E =-.331841E-01
       N       E                     dE             d eps       ncg     rms          rms(c)
DAV:   1    -0.824586021584E+02   -0.14310E+01   -0.40858E+01  5256   0.441E+01    0.962E+00
DAV:   2    -0.814308611634E+02    0.10277E+01   -0.49978E+00  5392   0.132E+01    0.342E+00
DAV:   3    -0.812812154141E+02    0.14965E+00   -0.19105E+00  6408   0.698E+00    0.248E+00
DAV:   4    -0.811797053403E+02    0.10151E+00   -0.65400E-01  6856   0.442E+00    0.939E-01
DAV:   5    -0.811850613910E+02   -0.53561E-02   -0.63709E-02  7144   0.125E+00    0.718E-01
DAV:   6    -0.811920735421E+02   -0.70122E-02   -0.13163E-02  7936   0.433E-01    0.572E-01
DAV:   7    -0.811982420195E+02   -0.61685E-02   -0.16843E-02  7000   0.590E-01    0.145E-01
DAV:   8    -0.811984352533E+02   -0.19323E-03   -0.35933E-03  7160   0.251E-01    0.419E-02
DAV:   9    -0.811984851612E+02   -0.49908E-04   -0.22061E-04  6592   0.671E-02    0.187E-02
DAV:  10    -0.811984927267E+02   -0.75655E-05   -0.13979E-05  3744   0.206E-02
   3 F= -.81198493E+02 E0= -.81198493E+02  d E =-.204072E+00
       N       E                     dE             d eps       ncg     rms          rms(c)
DAV:   1    -0.811988935414E+02   -0.40838E-03   -0.13625E-02  5512   0.823E-01    0.173E-01
DAV:   2    -0.811986817689E+02    0.21177E-03   -0.17955E-03  5792   0.253E-01    0.678E-02
DAV:   3    -0.811984635440E+02    0.21822E-03   -0.97211E-04  6392   0.154E-01    0.653E-02
DAV:   4    -0.811984982232E+02   -0.34679E-04   -0.36749E-04  6264   0.102E-01    0.197E-02
DAV:   5    -0.811984998006E+02   -0.15774E-05   -0.22981E-05  4368   0.254E-02
   4 F= -.81198500E+02 E0= -.81198500E+02  d E =-.204079E+00
       N       E                     dE             d eps       ncg     rms          rms(c)
DAV:   1    -0.812350076171E+02   -0.36509E-01   -0.63294E+00  4688   0.903E+00    0.919E-01
DAV:   2    -0.812411514949E+02   -0.61439E-02   -0.14514E-01  5680   0.176E+00    0.612E-01
DAV:   3    -0.812420694297E+02   -0.91793E-03   -0.23259E-02  7408   0.723E-01    0.367E-01
DAV:   4    -0.812413378254E+02    0.73160E-03   -0.51046E-03  6208   0.439E-01    0.201E-01
DAV:   5    -0.812414301361E+02   -0.92311E-04   -0.15525E-03  7248   0.214E-01    0.691E-02
DAV:   6    -0.812413927017E+02    0.37434E-04   -0.16279E-04  6104   0.641E-02    0.330E-02
DAV:   7    -0.812413740037E+02    0.18698E-04   -0.39643E-05  4328   0.380E-02    0.123E-02
DAV:   8    -0.812413869993E+02   -0.12996E-04   -0.75903E-06  3168   0.224E-02    0.377E-03
DAV:   9    -0.812413879046E+02   -0.90536E-06   -0.28248E-06  2992   0.127E-02
   5 F= -.81241388E+02 E0= -.81241388E+02  d E =-.428881E-01
       N       E                     dE             d eps       ncg     rms          rms(c)
DAV:   1    -0.812555210495E+02   -0.14134E-01   -0.73449E+00  4680   0.974E+00    0.100E+00
DAV:   2    -0.812629405701E+02   -0.74195E-02   -0.16886E-01  5680   0.188E+00    0.662E-01
DAV:   3    -0.812645269012E+02   -0.15863E-02   -0.28435E-02  7376   0.744E-01    0.407E-01
DAV:   4    -0.812635396596E+02    0.98724E-03   -0.94005E-03  6136   0.521E-01    0.246E-01
DAV:   5    -0.812634659769E+02    0.73683E-04   -0.24130E-03  7000   0.262E-01    0.800E-02
DAV:   6    -0.812634085528E+02    0.57424E-04   -0.23777E-04  6352   0.710E-02    0.340E-02
DAV:   7    -0.812634318430E+02   -0.23290E-04   -0.34387E-05  4528   0.329E-02    0.161E-02
DAV:   8    -0.812634304556E+02    0.13874E-05   -0.56030E-06  3168   0.183E-02
   6 F= -.81263430E+02 E0= -.81263430E+02  d E =-.649307E-01
       N       E                     dE             d eps       ncg     rms          rms(c)
DAV:   1    -0.812646023159E+02   -0.11705E-02   -0.85742E-01  4880   0.333E+00    0.342E-01
DAV:   2    -0.812652260353E+02   -0.62372E-03   -0.19750E-02  5712   0.655E-01    0.235E-01
DAV:   3    -0.812655879454E+02   -0.36191E-03   -0.37657E-03  7200   0.289E-01    0.150E-01
DAV:   4    -0.812652218138E+02    0.36613E-03   -0.87555E-04  6304   0.175E-01    0.803E-02
DAV:   5    -0.812653367722E+02   -0.11496E-03   -0.24174E-04  6048   0.772E-02    0.277E-02
DAV:   6    -0.812652977878E+02    0.38984E-04   -0.32341E-05  3600   0.299E-02    0.129E-02
DAV:   7    -0.812653179085E+02   -0.20121E-04   -0.18830E-05  3104   0.202E-02    0.791E-03
DAV:   8    -0.812653045796E+02    0.13329E-04   -0.46790E-06  2976   0.151E-02    0.405E-03
DAV:   9    -0.812653105539E+02   -0.59743E-05   -0.62282E-06  2848   0.106E-02
   7 F= -.81265311E+02 E0= -.81265311E+02  d E =-.668108E-01
       N       E                     dE             d eps       ncg     rms          rms(c)
DAV:   1    -0.812721533866E+02   -0.68488E-02   -0.95861E+00  4320   0.148E+01    0.991E-01
DAV:   2    -0.812811538845E+02   -0.90005E-02   -0.26324E-01  5472   0.304E+00    0.819E-01
DAV:   3    -0.812799576924E+02    0.11962E-02   -0.45139E-02  6744   0.112E+00    0.508E-01
DAV:   4    -0.812766601670E+02    0.32975E-02   -0.12890E-02  5704   0.630E-01    0.220E-01
DAV:   5    -0.812767250118E+02   -0.64845E-04   -0.23943E-03  6552   0.278E-01    0.692E-02
DAV:   6    -0.812767080744E+02    0.16937E-04   -0.25037E-04  7040   0.776E-02    0.398E-02
DAV:   7    -0.812767153634E+02   -0.72890E-05   -0.39098E-05  4456   0.366E-02
   8 F= -.81276715E+02 E0= -.81276715E+02  d E =-.114048E-01
       N       E                     dE             d eps       ncg     rms          rms(c)
DAV:   1    -0.812770603938E+02   -0.35232E-03   -0.31335E-01  4328   0.267E+00    0.182E-01
DAV:   2    -0.812777033922E+02   -0.64300E-03   -0.84890E-03  5448   0.552E-01    0.147E-01
DAV:   3    -0.812773619648E+02    0.34143E-03   -0.92412E-04  6664   0.202E-01    0.822E-02
DAV:   4    -0.812772942419E+02    0.67723E-04   -0.14570E-04  5448   0.786E-02    0.319E-02
DAV:   5    -0.812773185194E+02   -0.24278E-04   -0.51599E-05  5144   0.372E-02    0.113E-02
DAV:   6    -0.812772965219E+02    0.21998E-04   -0.12785E-05  3272   0.217E-02    0.719E-03
DAV:   7    -0.812773079893E+02   -0.11467E-04   -0.36998E-06  2944   0.146E-02    0.334E-03
DAV:   8    -0.812773047996E+02    0.31897E-05   -0.12455E-06  2760   0.848E-03
   9 F= -.81277305E+02 E0= -.81277305E+02  d E =-.119942E-01
       N       E                     dE             d eps       ncg     rms          rms(c)
DAV:   1    -0.812772840986E+02    0.23891E-04   -0.49003E-03  4464   0.335E-01    0.224E-02
DAV:   2    -0.812773265648E+02   -0.42466E-04   -0.14084E-04  5432   0.689E-02    0.194E-02
DAV:   3    -0.812772904000E+02    0.36165E-04   -0.21827E-05  3480   0.274E-02    0.111E-02
DAV:   4    -0.812773013901E+02   -0.10990E-04   -0.74455E-06  2880   0.191E-02    0.513E-03
DAV:   5    -0.812772967366E+02    0.46535E-05   -0.24705E-06  2552   0.111E-02
  10 F= -.81277297E+02 E0= -.81277297E+02  d E =-.119862E-01
       N       E                     dE             d eps       ncg     rms          rms(c)
DAV:   1    -0.812772841706E+02    0.17220E-04   -0.76334E-04  4496   0.133E-01    0.893E-03
DAV:   2    -0.812773002474E+02   -0.16077E-04   -0.23567E-05  4168   0.288E-02    0.798E-03
DAV:   3    -0.812772864107E+02    0.13837E-04   -0.43685E-06  2848   0.137E-02    0.453E-03
DAV:   4    -0.812772907443E+02   -0.43335E-05   -0.15096E-06  2528   0.885E-03
  11 F= -.81277291E+02 E0= -.81277291E+02  d E =-.119802E-01
       N       E                     dE             d eps       ncg     rms          rms(c)
DAV:   1    -0.812772930714E+02   -0.66607E-05   -0.79500E-05  3936   0.428E-02    0.305E-03
DAV:   2    -0.812772887577E+02    0.43137E-05   -0.21732E-06  2480   0.108E-02
  12 F= -.81277289E+02 E0= -.81277289E+02  d E =-.119782E-01
       N       E                     dE             d eps       ncg     rms          rms(c)
DAV:   1    -0.812772971835E+02   -0.41121E-05   -0.94470E-05  4120   0.471E-02    0.446E-03
DAV:   2    -0.812772889033E+02    0.82802E-05   -0.32902E-06  2712   0.122E-02
  13 F= -.81277289E+02 E0= -.81277289E+02  d E =-.119783E-01
       N       E                     dE             d eps       ncg     rms          rms(c)
DAV:   1    -0.812802060070E+02   -0.29088E-02   -0.10102E-01  5288   0.225E+00    0.464E-01
DAV:   2    -0.812779343740E+02    0.22716E-02   -0.10983E-02  5504   0.648E-01    0.176E-01
DAV:   3    -0.812771208436E+02    0.81353E-03   -0.20250E-03  6104   0.287E-01    0.818E-02
DAV:   4    -0.812772486322E+02   -0.12779E-03   -0.74159E-04  7664   0.141E-01    0.610E-02
DAV:   5    -0.812771940704E+02    0.54562E-04   -0.11981E-04  5536   0.653E-02    0.433E-02
DAV:   6    -0.812772177174E+02   -0.23647E-04   -0.49627E-05  5592   0.270E-02    0.261E-02
DAV:   7    -0.812772476005E+02   -0.29883E-04   -0.24818E-05  4880   0.223E-02    0.779E-03
DAV:   8    -0.812772679142E+02   -0.20314E-04   -0.11209E-05  3136   0.195E-02    0.583E-03
DAV:   9    -0.812772612638E+02    0.66504E-05   -0.27721E-06  2800   0.121E-02
  14 F= -.81277261E+02 E0= -.81277261E+02  d E =0.276395E-04
       N       E                     dE             d eps       ncg     rms          rms(c)
DAV:   1    -0.812783616441E+02   -0.10937E-02   -0.30094E-02  5304   0.123E+00    0.250E-01
DAV:   2    -0.812775971799E+02    0.76446E-03   -0.31647E-03  5400   0.332E-01    0.105E-01
DAV:   3    -0.812773116771E+02    0.28550E-03   -0.79422E-04  6280   0.196E-01    0.505E-02
DAV:   4    -0.812774110163E+02   -0.99339E-04   -0.27273E-04  6792   0.103E-01    0.286E-02
DAV:   5    -0.812773785002E+02    0.32516E-04   -0.37756E-05  4312   0.306E-02    0.245E-02
DAV:   6    -0.812773935426E+02   -0.15042E-04   -0.21116E-05  4176   0.247E-02    0.146E-02
DAV:   7    -0.812773775623E+02    0.15980E-04   -0.12384E-05  3240   0.194E-02    0.492E-03
DAV:   8    -0.812773866869E+02   -0.91246E-05   -0.58900E-06  2560   0.163E-02
  15 F= -.81277387E+02 E0= -.81277387E+02  d E =-.977836E-04
