<?xml version="1.0" encoding="ISO-8859-1"?>
<modeling>
 <generator>
  <i name="program" type="string">vasp </i>
  <i name="version" type="string">5.4.4.18Apr17-6-g9f103f2a35  </i>
  <i name="subversion" type="string">(build Oct 23 2017 21:22:35) complex            parallel </i>
  <i name="platform" type="string">LinuxIFC </i>
  <i name="date" type="string">2017 12 27 </i>
  <i name="time" type="string">07:46:21 </i>
 </generator>
 <incar>
  <i type="string" name="PREC">accurate</i>
  <i type="int" name="IBRION">    -1</i>
  <i name="EDIFF">      0.00001000</i>
  <i name="EDIFFG">     -0.01000000</i>
  <i type="int" name="ISIF">     2</i>
  <i name="ENCUT">    500.00000000</i>
  <i type="int" name="ISMEAR">    -5</i>
  <v type="int" name="KPOINT_BSE">    -1     0     0     0</v>
 </incar>
 <structure name="primitive_cell" >
  <crystal>
   <varray name="basis" >
    <v>       0.00000000       0.00000000      -4.00411470 </v>
    <v>       0.00000000       4.00411470       0.00000000 </v>
    <v>       8.00544724       0.00000000       0.00000000 </v>
   </varray>
   <i name="volume">    128.35081183 </i>
   <varray name="rec_basis" >
    <v>       0.00000000       0.00000000      -0.24974310 </v>
    <v>       0.00000000       0.24974310       0.00000000 </v>
    <v>       0.12491494       0.00000000       0.00000000 </v>
   </varray>
  </crystal>
  <varray name="positions" >
   <v>      -0.50000000      -0.50000000       0.25000000 </v>
   <v>      -0.50000000       0.00000000       0.25000000 </v>
   <v>       0.00000000      -0.50000000       0.25000000 </v>
   <v>      -0.50000000      -0.50000000      -0.49903138 </v>
   <v>      -0.50000000      -0.50000000      -0.00096862 </v>
   <v>       0.00000000       0.00000000      -0.48394472 </v>
   <v>       0.00000000       0.00000000      -0.01605528 </v>
   <v>      -0.50000000      -0.50000000      -0.25000000 </v>
   <v>      -0.50000000       0.00000000      -0.25000000 </v>
   <v>       0.00000000      -0.50000000      -0.25000000 </v>
  </varray>
 </structure>
 <varray name="primitive_index" >
  <v type="int" >        1 </v>
  <v type="int" >        3 </v>
  <v type="int" >        4 </v>
  <v type="int" >        2 </v>
  <v type="int" >        5 </v>
  <v type="int" >        8 </v>
  <v type="int" >        9 </v>
  <v type="int" >       10 </v>
  <v type="int" >        6 </v>
  <v type="int" >        7 </v>
 </varray>
 <kpoints>
  <generation param="Gamma">
   <v type="int" name="divisions">       8        8        4 </v>
   <v name="usershift">      0.00000000       0.00000000       0.00000000 </v>
   <v name="genvec1">      0.12500000       0.00000000       0.00000000 </v>
   <v name="genvec2">      0.00000000       0.12500000       0.00000000 </v>
   <v name="genvec3">      0.00000000       0.00000000       0.25000000 </v>
   <v name="shift">      0.00000000       0.00000000       0.00000000 </v>
  </generation>
  <varray name="kpointlist" >
   <v>       0.00000000       0.00000000       0.00000000 </v>
   <v>       0.12500000       0.00000000       0.00000000 </v>
   <v>       0.25000000       0.00000000       0.00000000 </v>
   <v>       0.37500000       0.00000000       0.00000000 </v>
   <v>       0.50000000       0.00000000       0.00000000 </v>
   <v>       0.12500000       0.12500000       0.00000000 </v>
   <v>       0.25000000       0.12500000       0.00000000 </v>
   <v>       0.37500000       0.12500000       0.00000000 </v>
   <v>       0.50000000       0.12500000       0.00000000 </v>
   <v>       0.25000000       0.25000000       0.00000000 </v>
   <v>       0.37500000       0.25000000       0.00000000 </v>
   <v>       0.50000000       0.25000000       0.00000000 </v>
   <v>       0.37500000       0.37500000       0.00000000 </v>
   <v>       0.50000000       0.37500000       0.00000000 </v>
   <v>       0.50000000       0.50000000       0.00000000 </v>
   <v>       0.00000000       0.00000000       0.25000000 </v>
   <v>       0.12500000       0.00000000       0.25000000 </v>
   <v>       0.25000000       0.00000000       0.25000000 </v>
   <v>       0.37500000       0.00000000       0.25000000 </v>
   <v>       0.50000000       0.00000000       0.25000000 </v>
   <v>       0.12500000       0.12500000       0.25000000 </v>
   <v>       0.25000000       0.12500000       0.25000000 </v>
   <v>       0.37500000       0.12500000       0.25000000 </v>
   <v>       0.50000000       0.12500000       0.25000000 </v>
   <v>       0.25000000       0.25000000       0.25000000 </v>
   <v>       0.37500000       0.25000000       0.25000000 </v>
   <v>       0.50000000       0.25000000       0.25000000 </v>
   <v>       0.37500000       0.37500000       0.25000000 </v>
   <v>       0.50000000       0.37500000       0.25000000 </v>
   <v>       0.50000000       0.50000000       0.25000000 </v>
   <v>       0.00000000       0.00000000       0.50000000 </v>
   <v>       0.12500000       0.00000000       0.50000000 </v>
   <v>       0.25000000       0.00000000       0.50000000 </v>
   <v>       0.37500000       0.00000000       0.50000000 </v>
   <v>       0.50000000       0.00000000       0.50000000 </v>
   <v>       0.12500000       0.12500000       0.50000000 </v>
   <v>       0.25000000       0.12500000       0.50000000 </v>
   <v>       0.37500000       0.12500000       0.50000000 </v>
   <v>       0.50000000       0.12500000       0.50000000 </v>
   <v>       0.25000000       0.25000000       0.50000000 </v>
   <v>       0.37500000       0.25000000       0.50000000 </v>
   <v>       0.50000000       0.25000000       0.50000000 </v>
   <v>       0.37500000       0.37500000       0.50000000 </v>
   <v>       0.50000000       0.37500000       0.50000000 </v>
   <v>       0.50000000       0.50000000       0.50000000 </v>
  </varray>
  <varray name="weights" >
   <v>       0.00390625 </v>
   <v>       0.01562500 </v>
   <v>       0.01562500 </v>
   <v>       0.01562500 </v>
   <v>       0.00781250 </v>
   <v>       0.01562500 </v>
   <v>       0.03125000 </v>
   <v>       0.03125000 </v>
   <v>       0.01562500 </v>
   <v>       0.01562500 </v>
   <v>       0.03125000 </v>
   <v>       0.01562500 </v>
   <v>       0.01562500 </v>
   <v>       0.01562500 </v>
   <v>       0.00390625 </v>
   <v>       0.00781250 </v>
   <v>       0.03125000 </v>
   <v>       0.03125000 </v>
   <v>       0.03125000 </v>
   <v>       0.01562500 </v>
   <v>       0.03125000 </v>
   <v>       0.06250000 </v>
   <v>       0.06250000 </v>
   <v>       0.03125000 </v>
   <v>       0.03125000 </v>
   <v>       0.06250000 </v>
   <v>       0.03125000 </v>
   <v>       0.03125000 </v>
   <v>       0.03125000 </v>
   <v>       0.00781250 </v>
   <v>       0.00390625 </v>
   <v>       0.01562500 </v>
   <v>       0.01562500 </v>
   <v>       0.01562500 </v>
   <v>       0.00781250 </v>
   <v>       0.01562500 </v>
   <v>       0.03125000 </v>
   <v>       0.03125000 </v>
   <v>       0.01562500 </v>
   <v>       0.01562500 </v>
   <v>       0.03125000 </v>
   <v>       0.01562500 </v>
   <v>       0.01562500 </v>
   <v>       0.01562500 </v>
   <v>       0.00390625 </v>
  </varray>
  <varray name="tetrahedronlist"  type="int" >
   <v type="int" >        4        1        2        2       17 </v>
   <v type="int" >        4        2        2        6       17 </v>
   <v type="int" >        4        2        6       17       21 </v>
   <v type="int" >        4        1        2       16       17 </v>
   <v type="int" >        4        2       16       17       17 </v>
   <v type="int" >        4        2       17       17       21 </v>
   <v type="int" >        4        2        3        6       18 </v>
   <v type="int" >        4        3        6        7       18 </v>
   <v type="int" >        4        6        7       18       22 </v>
   <v type="int" >        4        2        6       17       18 </v>
   <v type="int" >        4        6       17       18       21 </v>
   <v type="int" >        4        6       18       21       22 </v>
   <v type="int" >        4        3        4        7       19 </v>
   <v type="int" >        4        4        7        8       19 </v>
   <v type="int" >        4        7        8       19       23 </v>
   <v type="int" >        4        3        7       18       19 </v>
   <v type="int" >        4        7       18       19       22 </v>
   <v type="int" >        4        7       19       22       23 </v>
   <v type="int" >        4        4        5        8       20 </v>
   <v type="int" >        4        5        8        9       20 </v>
   <v type="int" >        4        8        9       20       24 </v>
   <v type="int" >        4        4        8       19       20 </v>
   <v type="int" >        4        8       19       20       23 </v>
   <v type="int" >        4        8       20       23       24 </v>
   <v type="int" >        4        4        5        9       19 </v>
   <v type="int" >        4        4        8        9       19 </v>
   <v type="int" >        4        8        9       19       23 </v>
   <v type="int" >        4        5        9       19       20 </v>
   <v type="int" >        4        9       19       20       24 </v>
   <v type="int" >        4        9       19       23       24 </v>
   <v type="int" >        4        3        4        8       18 </v>
   <v type="int" >        4        3        7        8       18 </v>
   <v type="int" >        4        7        8       18       22 </v>
   <v type="int" >        4        4        8       18       19 </v>
   <v type="int" >        4        8       18       19       23 </v>
   <v type="int" >        4        8       18       22       23 </v>
   <v type="int" >        4        2        3        7       17 </v>
   <v type="int" >        4        2        6        7       17 </v>
   <v type="int" >        4        6        7       17       21 </v>
   <v type="int" >        4        3        7       17       18 </v>
   <v type="int" >        4        7       17       18       22 </v>
   <v type="int" >        4        7       17       21       22 </v>
   <v type="int" >        4        1        2        6       16 </v>
   <v type="int" >        4        2        6       16       17 </v>
   <v type="int" >        4        6       16       17       21 </v>
   <v type="int" >        4        2        3        6       21 </v>
   <v type="int" >        4        3        6        7       21 </v>
   <v type="int" >        4        3        7       21       22 </v>
   <v type="int" >        4        2        3       17       21 </v>
   <v type="int" >        4        3       17       18       21 </v>
   <v type="int" >        4        3       18       21       22 </v>
   <v type="int" >        4        6        7        7       22 </v>
   <v type="int" >        4        7        7       10       22 </v>
   <v type="int" >        4        7       10       22       25 </v>
   <v type="int" >        4        6        7       21       22 </v>
   <v type="int" >        4        7       21       22       22 </v>
   <v type="int" >        4        7       22       22       25 </v>
   <v type="int" >        4        7        8       10       23 </v>
   <v type="int" >        4        8       10       11       23 </v>
   <v type="int" >        4       10       11       23       26 </v>
   <v type="int" >        4        7       10       22       23 </v>
   <v type="int" >        4       10       22       23       25 </v>
   <v type="int" >        4       10       23       25       26 </v>
   <v type="int" >        4        8        9       11       24 </v>
   <v type="int" >        4        9       11       12       24 </v>
   <v type="int" >        4       11       12       24       27 </v>
   <v type="int" >        4        8       11       23       24 </v>
   <v type="int" >        4       11       23       24       26 </v>
   <v type="int" >        4       11       24       26       27 </v>
   <v type="int" >        4        8        9       12       23 </v>
   <v type="int" >        4        8       11       12       23 </v>
   <v type="int" >        4       11       12       23       26 </v>
   <v type="int" >        4        9       12       23       24 </v>
   <v type="int" >        4       12       23       24       27 </v>
   <v type="int" >        4       12       23       26       27 </v>
   <v type="int" >        4        7        8       11       22 </v>
   <v type="int" >        4        7       10       11       22 </v>
   <v type="int" >        4       10       11       22       25 </v>
   <v type="int" >        4        8       11       22       23 </v>
   <v type="int" >        4       11       22       23       26 </v>
   <v type="int" >        4       11       22       25       26 </v>
   <v type="int" >        4        6        7       10       21 </v>
   <v type="int" >        4        7       10       21       22 </v>
   <v type="int" >        4       10       21       22       25 </v>
   <v type="int" >        4        3        4        7       22 </v>
   <v type="int" >        4        4        7        8       22 </v>
   <v type="int" >        4        4        8       22       23 </v>
   <v type="int" >        4        3        4       18       22 </v>
   <v type="int" >        4        4       18       19       22 </v>
   <v type="int" >        4        4       19       22       23 </v>
   <v type="int" >        4        7        8       10       25 </v>
   <v type="int" >        4        8       10       11       25 </v>
   <v type="int" >        4        8       11       25       26 </v>
   <v type="int" >        4        7        8       22       25 </v>
   <v type="int" >        4        8       22       23       25 </v>
   <v type="int" >        4        8       23       25       26 </v>
   <v type="int" >        4       10       11       11       26 </v>
   <v type="int" >        4       11       11       13       26 </v>
   <v type="int" >        4       11       13       26       28 </v>
   <v type="int" >        4       10       11       25       26 </v>
   <v type="int" >        4       11       25       26       26 </v>
   <v type="int" >        4       11       26       26       28 </v>
   <v type="int" >        4       11       12       13       27 </v>
   <v type="int" >        4       12       13       14       27 </v>
   <v type="int" >        4       13       14       27       29 </v>
   <v type="int" >        4       11       13       26       27 </v>
   <v type="int" >        4       13       26       27       28 </v>
   <v type="int" >        4       13       27       28       29 </v>
   <v type="int" >        4       11       12       14       26 </v>
   <v type="int" >        4       11       13       14       26 </v>
   <v type="int" >        4       13       14       26       28 </v>
   <v type="int" >        4       12       14       26       27 </v>
   <v type="int" >        4       14       26       27       29 </v>
   <v type="int" >        4       14       26       28       29 </v>
   <v type="int" >        4       10       11       13       25 </v>
   <v type="int" >        4       11       13       25       26 </v>
   <v type="int" >        4       13       25       26       28 </v>
   <v type="int" >        4        4        5        8       23 </v>
   <v type="int" >        4        5        8        9       23 </v>
   <v type="int" >        4        5        9       23       24 </v>
   <v type="int" >        4        4        5       19       23 </v>
   <v type="int" >        4        5       19       20       23 </v>
   <v type="int" >        4        5       20       23       24 </v>
   <v type="int" >        4        8        9       11       26 </v>
   <v type="int" >        4        9       11       12       26 </v>
   <v type="int" >        4        9       12       26       27 </v>
   <v type="int" >        4        8        9       23       26 </v>
   <v type="int" >        4        9       23       24       26 </v>
   <v type="int" >        4        9       24       26       27 </v>
   <v type="int" >        4       11       12       13       28 </v>
   <v type="int" >        4       12       13       14       28 </v>
   <v type="int" >        4       12       14       28       29 </v>
   <v type="int" >        4       11       12       26       28 </v>
   <v type="int" >        4       12       26       27       28 </v>
   <v type="int" >        4       12       27       28       29 </v>
   <v type="int" >        4       13       14       14       29 </v>
   <v type="int" >        4       14       14       15       29 </v>
   <v type="int" >        4       14       15       29       30 </v>
   <v type="int" >        4       13       14       28       29 </v>
   <v type="int" >        4       14       28       29       29 </v>
   <v type="int" >        4       14       29       29       30 </v>
   <v type="int" >        4       13       14       15       28 </v>
   <v type="int" >        4       14       15       28       29 </v>
   <v type="int" >        4       15       28       29       30 </v>
   <v type="int" >        4        4        5        9       24 </v>
   <v type="int" >        4        4        8        9       24 </v>
   <v type="int" >        4        4        8       23       24 </v>
   <v type="int" >        4        4        5       20       24 </v>
   <v type="int" >        4        4       19       20       24 </v>
   <v type="int" >        4        4       19       23       24 </v>
   <v type="int" >        4        8        9       12       27 </v>
   <v type="int" >        4        8       11       12       27 </v>
   <v type="int" >        4        8       11       26       27 </v>
   <v type="int" >        4        8        9       24       27 </v>
   <v type="int" >        4        8       23       24       27 </v>
   <v type="int" >        4        8       23       26       27 </v>
   <v type="int" >        4       11       12       14       29 </v>
   <v type="int" >        4       11       13       14       29 </v>
   <v type="int" >        4       11       13       28       29 </v>
   <v type="int" >        4       11       12       27       29 </v>
   <v type="int" >        4       11       26       27       29 </v>
   <v type="int" >        4       11       26       28       29 </v>
   <v type="int" >        4       13       14       15       30 </v>
   <v type="int" >        4       13       14       29       30 </v>
   <v type="int" >        4       13       28       29       30 </v>
   <v type="int" >        4        3        4        8       23 </v>
   <v type="int" >        4        3        7        8       23 </v>
   <v type="int" >        4        3        7       22       23 </v>
   <v type="int" >        4        3        4       19       23 </v>
   <v type="int" >        4        3       18       19       23 </v>
   <v type="int" >        4        3       18       22       23 </v>
   <v type="int" >        4        7        8       11       26 </v>
   <v type="int" >        4        7       10       11       26 </v>
   <v type="int" >        4        7       10       25       26 </v>
   <v type="int" >        4        7        8       23       26 </v>
   <v type="int" >        4        7       22       23       26 </v>
   <v type="int" >        4        7       22       25       26 </v>
   <v type="int" >        4       10       11       13       28 </v>
   <v type="int" >        4       10       11       26       28 </v>
   <v type="int" >        4       10       25       26       28 </v>
   <v type="int" >        4        2        3        7       22 </v>
   <v type="int" >        4        2        6        7       22 </v>
   <v type="int" >        4        2        6       21       22 </v>
   <v type="int" >        4        2        3       18       22 </v>
   <v type="int" >        4        2       17       18       22 </v>
   <v type="int" >        4        2       17       21       22 </v>
   <v type="int" >        4        6        7       10       25 </v>
   <v type="int" >        4        6        7       22       25 </v>
   <v type="int" >        4        6       21       22       25 </v>
   <v type="int" >        4        1        2        6       21 </v>
   <v type="int" >        4        1        2       17       21 </v>
   <v type="int" >        4        1       16       17       21 </v>
   <v type="int" >        4       16       17       17       32 </v>
   <v type="int" >        4       17       17       21       32 </v>
   <v type="int" >        4       17       21       32       36 </v>
   <v type="int" >        4       16       17       31       32 </v>
   <v type="int" >        4       17       31       32       32 </v>
   <v type="int" >        4       17       32       32       36 </v>
   <v type="int" >        4       17       18       21       33 </v>
   <v type="int" >        4       18       21       22       33 </v>
   <v type="int" >        4       21       22       33       37 </v>
   <v type="int" >        4       17       21       32       33 </v>
   <v type="int" >        4       21       32       33       36 </v>
   <v type="int" >        4       21       33       36       37 </v>
   <v type="int" >        4       18       19       22       34 </v>
   <v type="int" >        4       19       22       23       34 </v>
   <v type="int" >        4       22       23       34       38 </v>
   <v type="int" >        4       18       22       33       34 </v>
   <v type="int" >        4       22       33       34       37 </v>
   <v type="int" >        4       22       34       37       38 </v>
   <v type="int" >        4       19       20       23       35 </v>
   <v type="int" >        4       20       23       24       35 </v>
   <v type="int" >        4       23       24       35       39 </v>
   <v type="int" >        4       19       23       34       35 </v>
   <v type="int" >        4       23       34       35       38 </v>
   <v type="int" >        4       23       35       38       39 </v>
   <v type="int" >        4       19       20       24       34 </v>
   <v type="int" >        4       19       23       24       34 </v>
   <v type="int" >        4       23       24       34       38 </v>
   <v type="int" >        4       20       24       34       35 </v>
   <v type="int" >        4       24       34       35       39 </v>
   <v type="int" >        4       24       34       38       39 </v>
   <v type="int" >        4       18       19       23       33 </v>
   <v type="int" >        4       18       22       23       33 </v>
   <v type="int" >        4       22       23       33       37 </v>
   <v type="int" >        4       19       23       33       34 </v>
   <v type="int" >        4       23       33       34       38 </v>
   <v type="int" >        4       23       33       37       38 </v>
   <v type="int" >        4       17       18       22       32 </v>
   <v type="int" >        4       17       21       22       32 </v>
   <v type="int" >        4       21       22       32       36 </v>
   <v type="int" >        4       18       22       32       33 </v>
   <v type="int" >        4       22       32       33       37 </v>
   <v type="int" >        4       22       32       36       37 </v>
   <v type="int" >        4       16       17       21       31 </v>
   <v type="int" >        4       17       21       31       32 </v>
   <v type="int" >        4       21       31       32       36 </v>
   <v type="int" >        4       17       18       21       36 </v>
   <v type="int" >        4       18       21       22       36 </v>
   <v type="int" >        4       18       22       36       37 </v>
   <v type="int" >        4       17       18       32       36 </v>
   <v type="int" >        4       18       32       33       36 </v>
   <v type="int" >        4       18       33       36       37 </v>
   <v type="int" >        4       21       22       22       37 </v>
   <v type="int" >        4       22       22       25       37 </v>
   <v type="int" >        4       22       25       37       40 </v>
   <v type="int" >        4       21       22       36       37 </v>
   <v type="int" >        4       22       36       37       37 </v>
   <v type="int" >        4       22       37       37       40 </v>
   <v type="int" >        4       22       23       25       38 </v>
   <v type="int" >        4       23       25       26       38 </v>
   <v type="int" >        4       25       26       38       41 </v>
   <v type="int" >        4       22       25       37       38 </v>
   <v type="int" >        4       25       37       38       40 </v>
   <v type="int" >        4       25       38       40       41 </v>
   <v type="int" >        4       23       24       26       39 </v>
   <v type="int" >        4       24       26       27       39 </v>
   <v type="int" >        4       26       27       39       42 </v>
   <v type="int" >        4       23       26       38       39 </v>
   <v type="int" >        4       26       38       39       41 </v>
   <v type="int" >        4       26       39       41       42 </v>
   <v type="int" >        4       23       24       27       38 </v>
   <v type="int" >        4       23       26       27       38 </v>
   <v type="int" >        4       26       27       38       41 </v>
   <v type="int" >        4       24       27       38       39 </v>
   <v type="int" >        4       27       38       39       42 </v>
   <v type="int" >        4       27       38       41       42 </v>
   <v type="int" >        4       22       23       26       37 </v>
   <v type="int" >        4       22       25       26       37 </v>
   <v type="int" >        4       25       26       37       40 </v>
   <v type="int" >        4       23       26       37       38 </v>
   <v type="int" >        4       26       37       38       41 </v>
   <v type="int" >        4       26       37       40       41 </v>
   <v type="int" >        4       21       22       25       36 </v>
   <v type="int" >        4       22       25       36       37 </v>
   <v type="int" >        4       25       36       37       40 </v>
   <v type="int" >        4       18       19       22       37 </v>
   <v type="int" >        4       19       22       23       37 </v>
   <v type="int" >        4       19       23       37       38 </v>
   <v type="int" >        4       18       19       33       37 </v>
   <v type="int" >        4       19       33       34       37 </v>
   <v type="int" >        4       19       34       37       38 </v>
   <v type="int" >        4       22       23       25       40 </v>
   <v type="int" >        4       23       25       26       40 </v>
   <v type="int" >        4       23       26       40       41 </v>
   <v type="int" >        4       22       23       37       40 </v>
   <v type="int" >        4       23       37       38       40 </v>
   <v type="int" >        4       23       38       40       41 </v>
   <v type="int" >        4       25       26       26       41 </v>
   <v type="int" >        4       26       26       28       41 </v>
   <v type="int" >        4       26       28       41       43 </v>
   <v type="int" >        4       25       26       40       41 </v>
   <v type="int" >        4       26       40       41       41 </v>
   <v type="int" >        4       26       41       41       43 </v>
   <v type="int" >        4       26       27       28       42 </v>
   <v type="int" >        4       27       28       29       42 </v>
   <v type="int" >        4       28       29       42       44 </v>
   <v type="int" >        4       26       28       41       42 </v>
   <v type="int" >        4       28       41       42       43 </v>
   <v type="int" >        4       28       42       43       44 </v>
   <v type="int" >        4       26       27       29       41 </v>
   <v type="int" >        4       26       28       29       41 </v>
   <v type="int" >        4       28       29       41       43 </v>
   <v type="int" >        4       27       29       41       42 </v>
   <v type="int" >        4       29       41       42       44 </v>
   <v type="int" >        4       29       41       43       44 </v>
   <v type="int" >        4       25       26       28       40 </v>
   <v type="int" >        4       26       28       40       41 </v>
   <v type="int" >        4       28       40       41       43 </v>
   <v type="int" >        4       19       20       23       38 </v>
   <v type="int" >        4       20       23       24       38 </v>
   <v type="int" >        4       20       24       38       39 </v>
   <v type="int" >        4       19       20       34       38 </v>
   <v type="int" >        4       20       34       35       38 </v>
   <v type="int" >        4       20       35       38       39 </v>
   <v type="int" >        4       23       24       26       41 </v>
   <v type="int" >        4       24       26       27       41 </v>
   <v type="int" >        4       24       27       41       42 </v>
   <v type="int" >        4       23       24       38       41 </v>
   <v type="int" >        4       24       38       39       41 </v>
   <v type="int" >        4       24       39       41       42 </v>
   <v type="int" >        4       26       27       28       43 </v>
   <v type="int" >        4       27       28       29       43 </v>
   <v type="int" >        4       27       29       43       44 </v>
   <v type="int" >        4       26       27       41       43 </v>
   <v type="int" >        4       27       41       42       43 </v>
   <v type="int" >        4       27       42       43       44 </v>
   <v type="int" >        4       28       29       29       44 </v>
   <v type="int" >        4       29       29       30       44 </v>
   <v type="int" >        4       29       30       44       45 </v>
   <v type="int" >        4       28       29       43       44 </v>
   <v type="int" >        4       29       43       44       44 </v>
   <v type="int" >        4       29       44       44       45 </v>
   <v type="int" >        4       28       29       30       43 </v>
   <v type="int" >        4       29       30       43       44 </v>
   <v type="int" >        4       30       43       44       45 </v>
   <v type="int" >        4       19       20       24       39 </v>
   <v type="int" >        4       19       23       24       39 </v>
   <v type="int" >        4       19       23       38       39 </v>
   <v type="int" >        4       19       20       35       39 </v>
   <v type="int" >        4       19       34       35       39 </v>
   <v type="int" >        4       19       34       38       39 </v>
   <v type="int" >        4       23       24       27       42 </v>
   <v type="int" >        4       23       26       27       42 </v>
   <v type="int" >        4       23       26       41       42 </v>
   <v type="int" >        4       23       24       39       42 </v>
   <v type="int" >        4       23       38       39       42 </v>
   <v type="int" >        4       23       38       41       42 </v>
   <v type="int" >        4       26       27       29       44 </v>
   <v type="int" >        4       26       28       29       44 </v>
   <v type="int" >        4       26       28       43       44 </v>
   <v type="int" >        4       26       27       42       44 </v>
   <v type="int" >        4       26       41       42       44 </v>
   <v type="int" >        4       26       41       43       44 </v>
   <v type="int" >        4       28       29       30       45 </v>
   <v type="int" >        4       28       29       44       45 </v>
   <v type="int" >        4       28       43       44       45 </v>
   <v type="int" >        4       18       19       23       38 </v>
   <v type="int" >        4       18       22       23       38 </v>
   <v type="int" >        4       18       22       37       38 </v>
   <v type="int" >        4       18       19       34       38 </v>
   <v type="int" >        4       18       33       34       38 </v>
   <v type="int" >        4       18       33       37       38 </v>
   <v type="int" >        4       22       23       26       41 </v>
   <v type="int" >        4       22       25       26       41 </v>
   <v type="int" >        4       22       25       40       41 </v>
   <v type="int" >        4       22       23       38       41 </v>
   <v type="int" >        4       22       37       38       41 </v>
   <v type="int" >        4       22       37       40       41 </v>
   <v type="int" >        4       25       26       28       43 </v>
   <v type="int" >        4       25       26       41       43 </v>
   <v type="int" >        4       25       40       41       43 </v>
   <v type="int" >        4       17       18       22       37 </v>
   <v type="int" >        4       17       21       22       37 </v>
   <v type="int" >        4       17       21       36       37 </v>
   <v type="int" >        4       17       18       33       37 </v>
   <v type="int" >        4       17       32       33       37 </v>
   <v type="int" >        4       17       32       36       37 </v>
   <v type="int" >        4       21       22       25       40 </v>
   <v type="int" >        4       21       22       37       40 </v>
   <v type="int" >        4       21       36       37       40 </v>
   <v type="int" >        4       16       17       21       36 </v>
   <v type="int" >        4       16       17       32       36 </v>
   <v type="int" >        4       16       31       32       36 </v>
  </varray>
  <i name="volumeweight">      0.00065104 </i>
 </kpoints>
 <parameters>
  <separator name="general" >
   <i type="string" name="SYSTEM">unknown system</i>
   <i type="logical" name="LCOMPAT"> F  </i>
  </separator>
  <separator name="electronic" >
   <i type="string" name="PREC">accura</i>
   <i name="ENMAX">    500.00000000</i>
   <i name="ENAUG">    605.39200000</i>
   <i name="EDIFF">      0.00001000</i>
   <i type="int" name="IALGO">    38</i>
   <i type="int" name="IWAVPR">    10</i>
   <i type="int" name="NBANDS">    48</i>
   <i name="NELECT">     81.00000000</i>
   <i type="int" name="TURBO">     0</i>
   <i type="int" name="IRESTART">     0</i>
   <i type="int" name="NREBOOT">     0</i>
   <i type="int" name="NMIN">     0</i>
   <i name="EREF">      0.00000000</i>
   <separator name="electronic smearing" >
    <i type="int" name="ISMEAR">    -5</i>
    <i name="SIGMA">      0.20000000</i>
    <i name="KSPACING">      0.50000000</i>
    <i type="logical" name="KGAMMA"> T  </i>
   </separator>
   <separator name="electronic projectors" >
    <i type="logical" name="LREAL"> F  </i>
    <v name="ROPT">      0.00000000      0.00000000      0.00000000      0.00000000</v>
    <i type="int" name="LMAXPAW">  -100</i>
    <i type="int" name="LMAXMIX">     2</i>
    <i type="logical" name="NLSPLINE"> F  </i>
   </separator>
   <separator name="electronic startup" >
    <i type="int" name="ISTART">     1</i>
    <i type="int" name="ICHARG">     0</i>
    <i type="int" name="INIWAV">     1</i>
   </separator>
   <separator name="electronic spin" >
    <i type="int" name="ISPIN">     1</i>
    <i type="logical" name="LNONCOLLINEAR"> F  </i>
    <v name="MAGMOM">      1.00000000      1.00000000      1.00000000      1.00000000      1.00000000      1.00000000      1.00000000      1.00000000      1.00000000      1.00000000</v>
    <i name="NUPDOWN">     -1.00000000</i>
    <i type="logical" name="LSORBIT"> F  </i>
    <v name="SAXIS">      0.00000000      0.00000000      1.00000000</v>
    <i type="logical" name="LSPIRAL"> F  </i>
    <v name="QSPIRAL">      0.00000000      0.00000000      0.00000000</v>
    <i type="logical" name="LZEROZ"> F  </i>
   </separator>
   <separator name="electronic exchange-correlation" >
    <i type="logical" name="LASPH"> F  </i>
    <i type="logical" name="LMETAGGA"> F  </i>
   </separator>
   <separator name="electronic convergence" >
    <i type="int" name="NELM">    60</i>
    <i type="int" name="NELMDL">     0</i>
    <i type="int" name="NELMIN">     2</i>
    <i name="ENINI">    500.00000000</i>
    <separator name="electronic convergence detail" >
     <i type="logical" name="LDIAG"> T  </i>
     <i type="logical" name="LSUBROT"> F  </i>
     <i name="WEIMIN">      0.00000000</i>
     <i name="EBREAK">      0.00000005</i>
     <i name="DEPER">      0.30000000</i>
     <i type="int" name="NRMM">     4</i>
     <i name="TIME">      0.40000000</i>
    </separator>
   </separator>
   <separator name="electronic mixer" >
    <i name="AMIX">      0.40000000</i>
    <i name="BMIX">      1.00000000</i>
    <i name="AMIN">      0.10000000</i>
    <i name="AMIX_MAG">      1.60000000</i>
    <i name="BMIX_MAG">      1.00000000</i>
    <separator name="electronic mixer details" >
     <i type="int" name="IMIX">     4</i>
     <i type="logical" name="MIXFIRST"> F  </i>
     <i type="int" name="MAXMIX">   -45</i>
     <i name="WC">    100.00000000</i>
     <i type="int" name="INIMIX">     1</i>
     <i type="int" name="MIXPRE">     1</i>
     <i type="int" name="MREMOVE">     5</i>
    </separator>
   </separator>
   <separator name="electronic dipolcorrection" >
    <i type="logical" name="LDIPOL"> F  </i>
    <i type="logical" name="LMONO"> F  </i>
    <i type="int" name="IDIPOL">     0</i>
    <i name="EPSILON">      1.00000000</i>
    <v name="DIPOL">   -100.00000000   -100.00000000   -100.00000000</v>
    <i name="EFIELD">      0.00000000</i>
   </separator>
  </separator>
  <separator name="grids" >
   <i type="int" name="NGX">    30</i>
   <i type="int" name="NGY">    30</i>
   <i type="int" name="NGZ">    60</i>
   <i type="int" name="NGXF">    60</i>
   <i type="int" name="NGYF">    60</i>
   <i type="int" name="NGZF">   120</i>
   <i type="logical" name="ADDGRID"> F  </i>
  </separator>
  <separator name="ionic" >
   <i type="int" name="NSW">     0</i>
   <i type="int" name="IBRION">    -1</i>
   <i type="int" name="MDALGO">     0</i>
   <i type="int" name="ISIF">     2</i>
   <i name="PSTRESS">      0.00000000</i>
   <i name="EDIFFG">     -0.01000000</i>
   <i type="int" name="NFREE">     0</i>
   <i name="POTIM">      0.50000000</i>
   <i name="SMASS">     -3.00000000</i>
   <i name="SCALEE">      1.00000000</i>
  </separator>
  <separator name="ionic md" >
   <i name="TEBEG">      0.00010000</i>
   <i name="TEEND">      0.00010000</i>
   <i type="int" name="NBLOCK">     1</i>
   <i type="int" name="KBLOCK">     1</i>
   <i type="int" name="NPACO">   256</i>
   <i name="APACO">     16.00000000</i>
  </separator>
  <separator name="symmetry" >
   <i type="int" name="ISYM">     2</i>
   <i name="SYMPREC">      0.00001000</i>
  </separator>
  <separator name="dos" >
   <i type="int" name="LORBIT">     0</i>
   <v name="RWIGS">     -1.00000000     -1.00000000     -1.00000000     -1.00000000</v>
   <i type="int" name="NEDOS">   301</i>
   <i name="EMIN">     10.00000000</i>
   <i name="EMAX">    -10.00000000</i>
   <i name="EFERMI">      0.00000000</i>
  </separator>
  <separator name="writing" >
   <i type="int" name="NWRITE">     2</i>
   <i type="logical" name="LWAVE"> T  </i>
   <i type="logical" name="LDOWNSAMPLE"> F  </i>
   <i type="logical" name="LCHARG"> T  </i>
   <i type="logical" name="LPARD"> F  </i>
   <i type="logical" name="LVTOT"> F  </i>
   <i type="logical" name="LVHAR"> F  </i>
   <i type="logical" name="LELF"> F  </i>
   <i type="logical" name="LOPTICS"> F  </i>
   <v name="STM">      0.00000000      0.00000000      0.00000000      0.00000000      0.00000000      0.00000000      0.00000000</v>
  </separator>
  <separator name="performance" >
   <i type="int" name="NPAR">     4</i>
   <i type="int" name="NSIM">     4</i>
   <i type="int" name="NBLK">    -1</i>
   <i type="logical" name="LPLANE"> T  </i>
   <i type="logical" name="LSCALAPACK"> T  </i>
   <i type="logical" name="LSCAAWARE"> F  </i>
   <i type="logical" name="LSCALU"> F  </i>
   <i type="logical" name="LASYNC"> F  </i>
   <i type="logical" name="LORBITALREAL"> F  </i>
  </separator>
  <separator name="miscellaneous" >
   <i type="int" name="IDIOT">     3</i>
   <i type="int" name="ISPECIAL">     0</i>
   <i type="logical" name="LMUSIC"> F  </i>
   <v name="POMASS">     92.91000000     16.00000000     87.62000000     47.88000000</v>
   <v name="DARWINR">      0.00000000      0.00000000      0.00000000      0.00000000</v>
   <v name="DARWINV">      1.00000000      1.00000000      1.00000000      1.00000000</v>
   <i type="logical" name="LCORR"> T  </i>
  </separator>
  <i type="logical" name="GGA_COMPAT"> T  </i>
  <i type="logical" name="LBERRY"> F  </i>
  <i type="int" name="ICORELEVEL">     0</i>
  <i type="logical" name="LDAU"> F  </i>
  <i type="int" name="I_CONSTRAINED_M">     0</i>
  <separator name="electronic exchange-correlation" >
   <i type="string" name="GGA">--</i>
   <i type="int" name="VOSKOWN">     0</i>
   <i type="logical" name="LHFCALC"> F  </i>
   <i type="string" name="PRECFOCK"></i>
   <i type="logical" name="LSYMGRAD"> F  </i>
   <i type="logical" name="LHFONE"> F  </i>
   <i type="logical" name="LRHFCALC"> F  </i>
   <i type="logical" name="LTHOMAS"> F  </i>
   <i type="logical" name="LMODELHF"> F  </i>
   <i name="ENCUT4O">     -1.00000000</i>
   <i type="int" name="EXXOEP">     0</i>
   <i type="int" name="FOURORBIT">     0</i>
   <i name="AEXX">      0.00000000</i>
   <i name="HFALPHA">      0.00000000</i>
   <i name="MCALPHA">      0.00000000</i>
   <i name="ALDAX">      1.00000000</i>
   <i name="AGGAX">      1.00000000</i>
   <i name="ALDAC">      1.00000000</i>
   <i name="AGGAC">      1.00000000</i>
   <i type="int" name="NKREDX">     1</i>
   <i type="int" name="NKREDY">     1</i>
   <i type="int" name="NKREDZ">     1</i>
   <i type="logical" name="SHIFTRED"> F  </i>
   <i type="logical" name="ODDONLY"> F  </i>
   <i type="logical" name="EVENONLY"> F  </i>
   <i type="int" name="LMAXFOCK">     0</i>
   <i type="int" name="NMAXFOCKAE">     0</i>
   <i type="logical" name="LFOCKAEDFT"> F  </i>
   <i name="HFSCREEN">      0.00000000</i>
   <i name="HFSCREENC">      0.00000000</i>
   <i type="int" name="NBANDSGWLOW">     0</i>
  </separator>
  <separator name="vdW DFT" >
   <i type="logical" name="LUSE_VDW"> F  </i>
   <i name="Zab_VDW">     -0.84910000</i>
   <i name="PARAM1">      0.12340000</i>
   <i name="PARAM2">      1.00000000</i>
   <i name="PARAM3">      0.00000000</i>
  </separator>
  <separator name="model GW" >
   <i type="int" name="MODEL_GW">     0</i>
   <i name="MODEL_EPS0">      7.70104871</i>
   <i name="MODEL_ALPHA">      1.00000000</i>
  </separator>
  <separator name="linear response parameters" >
   <i type="logical" name="LEPSILON"> F  </i>
   <i type="logical" name="LRPA"> F  </i>
   <i type="logical" name="LNABLA"> F  </i>
   <i type="logical" name="LVEL"> F  </i>
   <i type="int" name="KINTER">     0</i>
   <i name="CSHIFT">      0.10000000</i>
   <i name="OMEGAMAX">     -1.00000000</i>
   <i name="DEG_THRESHOLD">      0.00200000</i>
   <i name="RTIME">     -0.10000000</i>
   <i name="WPLASMAI">      0.00000000</i>
   <v name="DFIELD">      0.00000000      0.00000000      0.00000000</v>
   <v name="WPLASMA">      0.00000000      0.00000000      0.00000000      0.00000000      0.00000000      0.00000000      0.00000000      0.00000000      0.00000000</v>
  </separator>
  <separator name="orbital magnetization" >
   <i type="logical" name="NUCIND"> F  </i>
   <v name="MAGPOS">      0.00000000      0.00000000      0.00000000</v>
   <i type="logical" name="LNICSALL"> T  </i>
   <i type="logical" name="ORBITALMAG"> F  </i>
   <i type="logical" name="LMAGBLOCH"> F  </i>
   <i type="logical" name="LCHIMAG"> F  </i>
   <i type="logical" name="LGAUGE"> T  </i>
   <i type="int" name="MAGATOM">     0</i>
   <v name="MAGDIPOL">      0.00000000      0.00000000      0.00000000</v>
   <v name="AVECCONST">      0.00000000      0.00000000      0.00000000</v>
  </separator>
  <separator name="response functions" >
   <i type="logical" name="LADDER"> F  </i>
   <i type="logical" name="LRPAFORCE"> F  </i>
   <i type="logical" name="LFXC"> F  </i>
   <i type="logical" name="LHARTREE"> T  </i>
   <i type="int" name="IBSE">     0</i>
   <v type="int" name="KPOINT">    -1     0     0     0</v>
   <i type="logical" name="LTCTE"> F  </i>
   <i type="logical" name="LTETE"> F  </i>
   <i type="logical" name="LTRIPLET"> F  </i>
   <i type="logical" name="LFXCEPS"> F  </i>
   <i type="logical" name="LFXHEG"> F  </i>
   <i type="int" name="NATURALO">     2</i>
   <i type="logical" name="L2ORDER"> F  </i>
   <i type="logical" name="LMP2LT"> F  </i>
   <i type="logical" name="LUSEW"> F  </i>
   <i name="ENCUTGW">     -2.00000000</i>
   <i name="ENCUTGWSOFT">     -2.00000000</i>
   <i name="ENCUTLF">     -1.00000000</i>
   <i type="int" name="LMAXMP2">    -1</i>
   <i name="SCISSOR">      0.00000000</i>
   <i type="int" name="NOMEGA">     0</i>
   <i type="int" name="NOMEGAR">     0</i>
   <i type="int" name="NBANDSGW">    -1</i>
   <i type="int" name="NBANDSO">    -1</i>
   <i type="int" name="NBANDSV">    -1</i>
   <i type="int" name="NELM">     1</i>
   <i type="int" name="NELMHF">     1</i>
   <i type="int" name="DIM">     3</i>
   <i type="int" name="ANTIRES">     0</i>
   <i name="OMEGAMAX">    -30.00000000</i>
   <i name="OMEGAMIN">    -30.00000000</i>
   <i name="OMEGATL">   -200.00000000</i>
   <i type="int" name="OMEGAGRID">   140</i>
   <i name="CSHIFT">     -0.10000000</i>
   <i type="logical" name="SELFENERGY"> F  </i>
   <i type="logical" name="LSPECTRAL"> F  </i>
   <i type="logical" name="LSPECTRALGW"> F  </i>
   <i type="logical" name="LSINGLES"> F  </i>
   <i type="logical" name="LFERMIGW"> F  </i>
   <i type="logical" name="ODDONLYGW"> F  </i>
   <i type="logical" name="EVENONLYGW"> F  </i>
   <i type="int" name="NKREDLFX">     1</i>
   <i type="int" name="NKREDLFY">     1</i>
   <i type="int" name="NKREDLFZ">     1</i>
   <i type="int" name="MAXMEM">  2800</i>
   <i type="int" name="TELESCOPE">     0</i>
   <i type="int" name="TAUPAR">     1</i>
   <i type="int" name="OMEGAPAR">    -1</i>
   <i name="LAMBDA">      1.00000000</i>
  </separator>
  <separator name="External order field" >
   <i name="OFIELD_KAPPA">      0.00000000</i>
   <v name="OFIELD_K">      0.00000000      0.00000000      0.00000000</v>
   <i name="OFIELD_Q6_NEAR">      0.00000000</i>
   <i name="OFIELD_Q6_FAR">      0.00000000</i>
   <i name="OFIELD_A">      0.00000000</i>
  </separator>
 </parameters>
 <atominfo>
  <atoms>      10 </atoms>
  <types>       4 </types>
  <array name="atoms" >
   <dimension dim="1">ion</dimension>
   <field type="string">element</field>
   <field type="int">atomtype</field>
   <set>
    <rc><c>Nb</c><c>   1</c></rc>
    <rc><c>O </c><c>   2</c></rc>
    <rc><c>O </c><c>   2</c></rc>
    <rc><c>O </c><c>   2</c></rc>
    <rc><c>O </c><c>   2</c></rc>
    <rc><c>O </c><c>   2</c></rc>
    <rc><c>O </c><c>   2</c></rc>
    <rc><c>Sr</c><c>   3</c></rc>
    <rc><c>Sr</c><c>   3</c></rc>
    <rc><c>Ti</c><c>   4</c></rc>
   </set>
  </array>
  <array name="atomtypes" >
   <dimension dim="1">type</dimension>
   <field type="int">atomspertype</field>
   <field type="string">element</field>
   <field>mass</field>
   <field>valence</field>
   <field type="string">pseudopotential</field>
   <set>
    <rc><c>   1</c><c>Nb</c><c>     92.91000000</c><c>     13.00000000</c><c>  PAW_PBE Nb_sv 25May2007               </c></rc>
    <rc><c>   6</c><c>O </c><c>     16.00000000</c><c>      6.00000000</c><c>  PAW_PBE O 08Apr2002                   </c></rc>
    <rc><c>   2</c><c>Sr</c><c>     87.62000000</c><c>     10.00000000</c><c>  PAW_PBE Sr_sv 07Sep2000               </c></rc>
    <rc><c>   1</c><c>Ti</c><c>     47.88000000</c><c>     12.00000000</c><c>  PAW_PBE Ti_sv 26Sep2005               </c></rc>
   </set>
  </array>
 </atominfo>
 <structure name="initialpos" >
  <crystal>
   <varray name="basis" >
    <v>       0.00000000       0.00000000      -4.00411470 </v>
    <v>       0.00000000       4.00411470       0.00000000 </v>
    <v>       8.00544724       0.00000000       0.00000000 </v>
   </varray>
   <i name="volume">    128.35081183 </i>
   <varray name="rec_basis" >
    <v>       0.00000000       0.00000000      -0.24974310 </v>
    <v>       0.00000000       0.24974310       0.00000000 </v>
    <v>       0.12491494       0.00000000       0.00000000 </v>
   </varray>
  </crystal>
  <varray name="positions" >
   <v>       0.50000000       0.50000000       0.25000000 </v>
   <v>       0.50000000       0.50000000       0.50096862 </v>
   <v>       0.50000000       0.00000000       0.25000000 </v>
   <v>       0.00000000       0.50000000       0.25000000 </v>
   <v>       0.50000000       0.50000000       0.99903138 </v>
   <v>       0.50000000       0.00000000       0.75000000 </v>
   <v>       0.00000000       0.50000000       0.75000000 </v>
   <v>       0.00000000       0.00000000       0.51605528 </v>
   <v>       0.00000000       0.00000000       0.98394472 </v>
   <v>       0.50000000       0.50000000       0.75000000 </v>
  </varray>
 </structure>
 <calculation>
  <scstep>
   <time name="dav">    1.12    1.12</time>
   <time name="total">    1.22    1.24</time>
   <energy>
    <i name="alphaZ">    448.95670783 </i>
    <i name="ewald">  -5796.40918848 </i>
    <i name="hartreedc">  -1711.84756629 </i>
    <i name="XCdc">    360.57586839 </i>
    <i name="pawpsdc">   9011.71862259 </i>
    <i name="pawaedc">  -8963.62474289 </i>
    <i name="eentropy">      0.00000000 </i>
    <i name="bandstr">   -854.12974530 </i>
    <i name="atom">   7423.46905839 </i>
    <i name="e_fr_energy">    -81.29098577 </i>
    <i name="e_wo_entrp">    -81.29098577 </i>
    <i name="e_0_energy">    -81.29098577 </i>
   </energy>
  </scstep>
  <scstep>
   <time name="dav">    1.11    1.11</time>
   <time name="total">    1.16    1.16</time>
   <energy>
    <i name="alphaZ">    448.95670783 </i>
    <i name="ewald">  -5796.40918848 </i>
    <i name="hartreedc">  -1711.87054534 </i>
    <i name="XCdc">    360.57740604 </i>
    <i name="pawpsdc">   9009.42367313 </i>
    <i name="pawaedc">  -8961.33271315 </i>
    <i name="eentropy">      0.00000000 </i>
    <i name="bandstr">   -854.10538466 </i>
    <i name="atom">   7423.46905839 </i>
    <i name="e_fr_energy">    -81.29098625 </i>
    <i name="e_wo_entrp">    -81.29098625 </i>
    <i name="e_0_energy">    -81.29098625 </i>
   </energy>
  </scstep>
  <structure>
   <crystal>
    <varray name="basis" >
     <v>       0.00000000       0.00000000      -4.00411470 </v>
     <v>       0.00000000       4.00411470       0.00000000 </v>
     <v>       8.00544724       0.00000000       0.00000000 </v>
    </varray>
    <i name="volume">    128.35081183 </i>
    <varray name="rec_basis" >
     <v>       0.00000000       0.00000000      -0.24974310 </v>
     <v>       0.00000000       0.24974310       0.00000000 </v>
     <v>       0.12491494       0.00000000       0.00000000 </v>
    </varray>
   </crystal>
   <varray name="positions" >
    <v>       0.50000000       0.50000000       0.25000000 </v>
    <v>       0.50000000       0.50000000       0.50096862 </v>
    <v>       0.50000000       0.00000000       0.25000000 </v>
    <v>       0.00000000       0.50000000       0.25000000 </v>
    <v>       0.50000000       0.50000000       0.99903138 </v>
    <v>       0.50000000       0.00000000       0.75000000 </v>
    <v>       0.00000000       0.50000000       0.75000000 </v>
    <v>       0.00000000       0.00000000       0.51605528 </v>
    <v>       0.00000000       0.00000000       0.98394472 </v>
    <v>       0.50000000       0.50000000       0.75000000 </v>
   </varray>
  </structure>
  <varray name="forces" >
   <v>       0.00000000      -0.00000000       0.00000000 </v>
   <v>       0.00311068      -0.00000000       0.00000000 </v>
   <v>       0.00000000      -0.00000000       0.00000000 </v>
   <v>       0.00000000       0.00000000      -0.00000000 </v>
   <v>      -0.00311068       0.00000000       0.00000000 </v>
   <v>       0.00000000       0.00000000       0.00000000 </v>
   <v>       0.00000000      -0.00000000       0.00000000 </v>
   <v>      -0.00314524       0.00000000       0.00000000 </v>
   <v>       0.00314524      -0.00000000       0.00000000 </v>
   <v>      -0.00000000       0.00000000       0.00000000 </v>
  </varray>
  <varray name="stress" >
   <v>       1.84994316      -0.00000000       0.00000000 </v>
   <v>       0.00000000       1.96119124       0.00000000 </v>
   <v>      -0.00000000       0.00000000       1.96119124 </v>
  </varray>
  <energy>
   <i name="e_fr_energy">    -81.29098625 </i>
   <i name="e_wo_entrp">    -81.29098625 </i>
   <i name="e_0_energy">      0.00000000 </i>
  </energy>
  <time name="totalsc">    3.87    4.61</time>
  <eigenvalues>
   <array>
    <dimension dim="1">band</dimension>
    <dimension dim="2">kpoint</dimension>
    <dimension dim="3">spin</dimension>
    <field>eigene</field>
    <field>occ</field>
    <set>
     <set comment="spin 1">
      <set comment="kpoint 1">
       <r>  -51.5985    1.0000 </r>
       <r>  -49.9931    1.0000 </r>
       <r>  -28.9410    1.0000 </r>
       <r>  -28.9276    1.0000 </r>
       <r>  -27.8637    1.0000 </r>
       <r>  -27.8604    1.0000 </r>
       <r>  -27.8604    1.0000 </r>
       <r>  -26.2083    1.0000 </r>
       <r>  -26.1388    1.0000 </r>
       <r>  -26.1388    1.0000 </r>
       <r>  -13.4898    1.0000 </r>
       <r>  -13.0637    1.0000 </r>
       <r>  -12.8903    1.0000 </r>
       <r>  -12.4171    1.0000 </r>
       <r>  -11.9093    1.0000 </r>
       <r>  -11.8314    1.0000 </r>
       <r>  -10.9145    1.0000 </r>
       <r>  -10.9145    1.0000 </r>
       <r>  -10.9036    1.0000 </r>
       <r>  -10.8753    1.0000 </r>
       <r>  -10.8753    1.0000 </r>
       <r>  -10.3766    1.0000 </r>
       <r>   -0.2820    1.0000 </r>
       <r>    1.4513    1.0000 </r>
       <r>    1.5253    1.0000 </r>
       <r>    1.5253    1.0000 </r>
       <r>    1.5554    1.0000 </r>
       <r>    1.5554    1.0000 </r>
       <r>    1.6652    1.0000 </r>
       <r>    1.6652    1.0000 </r>
       <r>    1.6821    1.0000 </r>
       <r>    2.0917    1.0000 </r>
       <r>    2.8439    1.0000 </r>
       <r>    2.8439    1.0000 </r>
       <r>    2.9407    1.0000 </r>
       <r>    3.1074    1.0000 </r>
       <r>    3.1074    1.0000 </r>
       <r>    3.6283    1.0000 </r>
       <r>    3.7714    1.0000 </r>
       <r>    3.7714    1.0000 </r>
       <r>    5.9751    1.0000 </r>
       <r>    6.2403    1.0000 </r>
       <r>    6.2403    1.0000 </r>
       <r>    6.6057    1.1335 </r>
       <r>    8.3715    0.0000 </r>
       <r>    8.3715    0.0000 </r>
       <r>    8.7998    0.0000 </r>
       <r>    9.1656    0.0000 </r>
      </set>
      <set comment="kpoint 2">
       <r>  -51.5983    1.0000 </r>
       <r>  -49.9927    1.0000 </r>
       <r>  -28.9397    1.0000 </r>
       <r>  -28.9246    1.0000 </r>
       <r>  -27.8679    1.0000 </r>
       <r>  -27.8642    1.0000 </r>
       <r>  -27.8601    1.0000 </r>
       <r>  -26.2080    1.0000 </r>
       <r>  -26.1624    1.0000 </r>
       <r>  -26.1381    1.0000 </r>
       <r>  -13.4089    1.0000 </r>
       <r>  -13.0691    1.0000 </r>
       <r>  -12.8214    1.0000 </r>
       <r>  -12.4021    1.0000 </r>
       <r>  -11.9259    1.0000 </r>
       <r>  -11.9120    1.0000 </r>
       <r>  -10.9099    1.0000 </r>
       <r>  -10.9014    1.0000 </r>
       <r>  -10.8693    1.0000 </r>
       <r>  -10.8169    1.0000 </r>
       <r>  -10.8042    1.0000 </r>
       <r>  -10.4037    1.0000 </r>
       <r>   -0.2894    1.0000 </r>
       <r>    0.8124    1.0000 </r>
       <r>    1.2805    1.0000 </r>
       <r>    1.4369    1.0000 </r>
       <r>    1.4621    1.0000 </r>
       <r>    1.5274    1.0000 </r>
       <r>    1.5512    1.0000 </r>
       <r>    1.6027    1.0000 </r>
       <r>    1.9414    1.0000 </r>
       <r>    2.5929    1.0000 </r>
       <r>    2.5952    1.0000 </r>
       <r>    2.6409    1.0000 </r>
       <r>    2.8118    1.0000 </r>
       <r>    2.8347    1.0000 </r>
       <r>    3.0039    1.0000 </r>
       <r>    3.3857    1.0000 </r>
       <r>    3.5577    1.0000 </r>
       <r>    3.6555    1.0000 </r>
       <r>    6.2671    1.0005 </r>
       <r>    6.3998    1.0082 </r>
       <r>    6.6003    0.8977 </r>
       <r>    6.8839    0.4021 </r>
       <r>    8.3756    0.0000 </r>
       <r>    8.4090    0.0000 </r>
       <r>    8.9990    0.0000 </r>
       <r>    9.3500    0.0000 </r>
      </set>
      <set comment="kpoint 3">
       <r>  -51.5979    1.0000 </r>
       <r>  -49.9918    1.0000 </r>
       <r>  -28.9367    1.0000 </r>
       <r>  -28.9175    1.0000 </r>
       <r>  -27.8857    1.0000 </r>
       <r>  -27.8654    1.0000 </r>
       <r>  -27.8593    1.0000 </r>
       <r>  -26.2184    1.0000 </r>
       <r>  -26.2071    1.0000 </r>
       <r>  -26.1361    1.0000 </r>
       <r>  -13.3099    1.0000 </r>
       <r>  -13.0496    1.0000 </r>
       <r>  -12.6181    1.0000 </r>
       <r>  -12.3087    1.0000 </r>
       <r>  -12.0753    1.0000 </r>
       <r>  -11.9467    1.0000 </r>
       <r>  -10.8987    1.0000 </r>
       <r>  -10.8904    1.0000 </r>
       <r>  -10.8547    1.0000 </r>
       <r>  -10.6688    1.0000 </r>
       <r>  -10.6211    1.0000 </r>
       <r>  -10.4538    1.0000 </r>
       <r>   -0.3166    1.0000 </r>
       <r>    0.1025    1.0000 </r>
       <r>    0.4197    1.0000 </r>
       <r>    1.0666    1.0000 </r>
       <r>    1.2841    1.0000 </r>
       <r>    1.4563    1.0000 </r>
       <r>    1.4949    1.0000 </r>
       <r>    1.5433    1.0000 </r>
       <r>    2.0730    1.0000 </r>
       <r>    2.0914    1.0000 </r>
       <r>    2.2852    1.0000 </r>
       <r>    2.3820    1.0000 </r>
       <r>    2.4791    1.0000 </r>
       <r>    2.7819    1.0000 </r>
       <r>    2.8192    1.0000 </r>
       <r>    3.3378    1.0000 </r>
       <r>    3.4751    1.0000 </r>
       <r>    3.5121    1.0000 </r>
       <r>    6.3357    1.0266 </r>
       <r>    7.3022    0.0056 </r>
       <r>    7.3670   -0.0424 </r>
       <r>    7.4885   -0.0112 </r>
       <r>    8.3856    0.0000 </r>
       <r>    8.5959    0.0000 </r>
       <r>    9.0771    0.0000 </r>
       <r>    9.9124    0.0000 </r>
      </set>
      <set comment="kpoint 4">
       <r>  -51.5976    1.0000 </r>
       <r>  -49.9909    1.0000 </r>
       <r>  -28.9338    1.0000 </r>
       <r>  -28.9103    1.0000 </r>
       <r>  -27.9033    1.0000 </r>
       <r>  -27.8666    1.0000 </r>
       <r>  -27.8586    1.0000 </r>
       <r>  -26.2732    1.0000 </r>
       <r>  -26.2062    1.0000 </r>
       <r>  -26.1342    1.0000 </r>
       <r>  -13.3622    1.0000 </r>
       <r>  -12.9234    1.0000 </r>
       <r>  -12.4232    1.0000 </r>
       <r>  -12.2127    1.0000 </r>
       <r>  -12.1336    1.0000 </r>
       <r>  -11.9475    1.0000 </r>
       <r>  -10.8875    1.0000 </r>
       <r>  -10.8789    1.0000 </r>
       <r>  -10.8400    1.0000 </r>
       <r>  -10.5589    1.0000 </r>
       <r>  -10.5061    1.0000 </r>
       <r>  -10.4276    1.0000 </r>
       <r>   -0.6377    1.0000 </r>
       <r>   -0.3659    1.0000 </r>
       <r>   -0.2813    1.0000 </r>
       <r>    0.6347    1.0000 </r>
       <r>    1.0835    1.0000 </r>
       <r>    1.3157    1.0000 </r>
       <r>    1.4915    1.0000 </r>
       <r>    1.5407    1.0000 </r>
       <r>    1.7335    1.0000 </r>
       <r>    1.8948    1.0000 </r>
       <r>    2.0312    1.0000 </r>
       <r>    2.1854    1.0000 </r>
       <r>    2.3624    1.0000 </r>
       <r>    2.5931    1.0000 </r>
       <r>    2.6403    1.0000 </r>
       <r>    3.3627    1.0000 </r>
       <r>    3.3976    1.0000 </r>
       <r>    3.8042    1.0000 </r>
       <r>    6.4095    1.0726 </r>
       <r>    8.0151    0.0000 </r>
       <r>    8.0514    0.0000 </r>
       <r>    8.1824    0.0000 </r>
       <r>    8.3959    0.0000 </r>
       <r>    8.9537    0.0000 </r>
       <r>    9.0932    0.0000 </r>
       <r>   10.2804    0.0000 </r>
      </set>
      <set comment="kpoint 5">
       <r>  -51.5974    1.0000 </r>
       <r>  -49.9905    1.0000 </r>
       <r>  -28.9326    1.0000 </r>
       <r>  -28.9074    1.0000 </r>
       <r>  -27.9106    1.0000 </r>
       <r>  -27.8672    1.0000 </r>
       <r>  -27.8583    1.0000 </r>
       <r>  -26.2956    1.0000 </r>
       <r>  -26.2059    1.0000 </r>
       <r>  -26.1335    1.0000 </r>
       <r>  -13.3994    1.0000 </r>
       <r>  -12.8657    1.0000 </r>
       <r>  -12.2935    1.0000 </r>
       <r>  -12.2645    1.0000 </r>
       <r>  -12.1692    1.0000 </r>
       <r>  -11.8689    1.0000 </r>
       <r>  -10.8828    1.0000 </r>
       <r>  -10.8741    1.0000 </r>
       <r>  -10.8338    1.0000 </r>
       <r>  -10.5181    1.0000 </r>
       <r>  -10.4953    1.0000 </r>
       <r>  -10.3743    1.0000 </r>
       <r>   -1.0274    1.0000 </r>
       <r>   -0.5285    1.0000 </r>
       <r>   -0.3230    1.0000 </r>
       <r>    0.4516    1.0000 </r>
       <r>    0.9979    1.0000 </r>
       <r>    1.2590    1.0000 </r>
       <r>    1.5229    1.0000 </r>
       <r>    1.5436    1.0000 </r>
       <r>    1.5835    1.0000 </r>
       <r>    1.7350    1.0000 </r>
       <r>    1.9371    1.0000 </r>
       <r>    2.0915    1.0000 </r>
       <r>    2.4164    1.0000 </r>
       <r>    2.5266    1.0000 </r>
       <r>    2.6167    1.0000 </r>
       <r>    3.3261    1.0000 </r>
       <r>    3.3906    1.0000 </r>
       <r>    3.9210    1.0000 </r>
       <r>    6.4416    1.0911 </r>
       <r>    8.2408    0.0000 </r>
       <r>    8.3103    0.0000 </r>
       <r>    8.4003    0.0000 </r>
       <r>    8.5368    0.0000 </r>
       <r>    9.0969    0.0000 </r>
       <r>    9.1718    0.0000 </r>
       <r>   10.3515    0.0000 </r>
      </set>
      <set comment="kpoint 6">
       <r>  -51.5982    1.0000 </r>
       <r>  -49.9923    1.0000 </r>
       <r>  -28.9382    1.0000 </r>
       <r>  -28.9219    1.0000 </r>
       <r>  -27.8684    1.0000 </r>
       <r>  -27.8670    1.0000 </r>
       <r>  -27.8645    1.0000 </r>
       <r>  -26.2075    1.0000 </r>
       <r>  -26.1618    1.0000 </r>
       <r>  -26.1615    1.0000 </r>
       <r>  -13.3158    1.0000 </r>
       <r>  -13.0534    1.0000 </r>
       <r>  -12.7774    1.0000 </r>
       <r>  -12.3800    1.0000 </r>
       <r>  -11.9597    1.0000 </r>
       <r>  -11.9484    1.0000 </r>
       <r>  -10.9104    1.0000 </r>
       <r>  -10.8964    1.0000 </r>
       <r>  -10.8389    1.0000 </r>
       <r>  -10.8009    1.0000 </r>
       <r>  -10.7292    1.0000 </r>
       <r>  -10.4309    1.0000 </r>
       <r>   -0.2961    1.0000 </r>
       <r>    0.6778    1.0000 </r>
       <r>    1.0811    1.0000 </r>
       <r>    1.1167    1.0000 </r>
       <r>    1.3074    1.0000 </r>
       <r>    1.3319    1.0000 </r>
       <r>    1.5292    1.0000 </r>
       <r>    1.5598    1.0000 </r>
       <r>    2.1618    1.0000 </r>
       <r>    2.5137    1.0000 </r>
       <r>    2.5261    1.0000 </r>
       <r>    2.6056    1.0000 </r>
       <r>    2.6975    1.0000 </r>
       <r>    2.8609    1.0000 </r>
       <r>    2.8858    1.0000 </r>
       <r>    3.1377    1.0000 </r>
       <r>    3.4609    1.0000 </r>
       <r>    3.4824    1.0000 </r>
       <r>    6.5742    0.9956 </r>
       <r>    6.6706    0.7016 </r>
       <r>    6.7026    0.6228 </r>
       <r>    7.0953   -0.0096 </r>
       <r>    8.4127    0.0000 </r>
       <r>    8.4324    0.0000 </r>
       <r>    9.3780    0.0000 </r>
       <r>    9.4064    0.0000 </r>
      </set>
      <set comment="kpoint 7">
       <r>  -51.5978    1.0000 </r>
       <r>  -49.9914    1.0000 </r>
       <r>  -28.9346    1.0000 </r>
       <r>  -28.9151    1.0000 </r>
       <r>  -27.8859    1.0000 </r>
       <r>  -27.8672    1.0000 </r>
       <r>  -27.8654    1.0000 </r>
       <r>  -26.2177    1.0000 </r>
       <r>  -26.2065    1.0000 </r>
       <r>  -26.1598    1.0000 </r>
       <r>  -13.2053    1.0000 </r>
       <r>  -12.9904    1.0000 </r>
       <r>  -12.5957    1.0000 </r>
       <r>  -12.2912    1.0000 </r>
       <r>  -12.0708    1.0000 </r>
       <r>  -11.9758    1.0000 </r>
       <r>  -10.9176    1.0000 </r>
       <r>  -10.8848    1.0000 </r>
       <r>  -10.8315    1.0000 </r>
       <r>  -10.6446    1.0000 </r>
       <r>  -10.6439    1.0000 </r>
       <r>  -10.4737    1.0000 </r>
       <r>   -0.3217    1.0000 </r>
       <r>    0.1359    1.0000 </r>
       <r>    0.4033    1.0000 </r>
       <r>    0.9400    1.0000 </r>
       <r>    0.9726    1.0000 </r>
       <r>    1.0187    1.0000 </r>
       <r>    1.4560    1.0000 </r>
       <r>    1.5046    1.0000 </r>
       <r>    1.7374    1.0000 </r>
       <r>    2.2238    1.0000 </r>
       <r>    2.2484    1.0000 </r>
       <r>    2.4223    1.0000 </r>
       <r>    2.6408    1.0000 </r>
       <r>    2.6491    1.0000 </r>
       <r>    2.9146    1.0000 </r>
       <r>    3.2779    1.0000 </r>
       <r>    3.3024    1.0000 </r>
       <r>    3.4501    1.0000 </r>
       <r>    6.6748    0.8869 </r>
       <r>    7.3860   -0.0161 </r>
       <r>    7.4339   -0.0320 </r>
       <r>    7.6213   -0.0061 </r>
       <r>    8.4527    0.0000 </r>
       <r>    8.6230    0.0000 </r>
       <r>    9.4129    0.0000 </r>
       <r>   10.1003    0.0000 </r>
      </set>
      <set comment="kpoint 8">
       <r>  -51.5974    1.0000 </r>
       <r>  -49.9905    1.0000 </r>
       <r>  -28.9310    1.0000 </r>
       <r>  -28.9083    1.0000 </r>
       <r>  -27.9038    1.0000 </r>
       <r>  -27.8668    1.0000 </r>
       <r>  -27.8664    1.0000 </r>
       <r>  -26.2727    1.0000 </r>
       <r>  -26.2054    1.0000 </r>
       <r>  -26.1580    1.0000 </r>
       <r>  -13.2612    1.0000 </r>
       <r>  -12.8291    1.0000 </r>
       <r>  -12.3841    1.0000 </r>
       <r>  -12.1758    1.0000 </r>
       <r>  -12.1181    1.0000 </r>
       <r>  -12.0032    1.0000 </r>
       <r>  -10.8921    1.0000 </r>
       <r>  -10.8730    1.0000 </r>
       <r>  -10.8449    1.0000 </r>
       <r>  -10.5969    1.0000 </r>
       <r>  -10.5468    1.0000 </r>
       <r>  -10.4399    1.0000 </r>
       <r>   -0.6393    1.0000 </r>
       <r>   -0.2828    1.0000 </r>
       <r>   -0.2828    1.0000 </r>
       <r>    0.5900    1.0000 </r>
       <r>    0.6626    1.0000 </r>
       <r>    0.9464    1.0000 </r>
       <r>    1.3608    1.0000 </r>
       <r>    1.5132    1.0000 </r>
       <r>    1.5163    1.0000 </r>
       <r>    1.8817    1.0000 </r>
       <r>    2.0530    1.0000 </r>
       <r>    2.1232    1.0000 </r>
       <r>    2.5368    1.0000 </r>
       <r>    2.6777    1.0000 </r>
       <r>    2.9190    1.0000 </r>
       <r>    3.1350    1.0000 </r>
       <r>    3.2665    1.0000 </r>
       <r>    3.8075    1.0000 </r>
       <r>    6.7411    0.7320 </r>
       <r>    8.0572    0.0000 </r>
       <r>    8.0601    0.0000 </r>
       <r>    8.2922    0.0000 </r>
       <r>    8.4834    0.0000 </r>
       <r>    8.9865    0.0000 </r>
       <r>    9.4204    0.0000 </r>
       <r>   10.5645    0.0000 </r>
      </set>
      <set comment="kpoint 9">
       <r>  -51.5972    1.0000 </r>
       <r>  -49.9901    1.0000 </r>
       <r>  -28.9295    1.0000 </r>
       <r>  -28.9055    1.0000 </r>
       <r>  -27.9112    1.0000 </r>
       <r>  -27.8668    1.0000 </r>
       <r>  -27.8666    1.0000 </r>
       <r>  -26.2951    1.0000 </r>
       <r>  -26.2050    1.0000 </r>
       <r>  -26.1573    1.0000 </r>
       <r>  -13.2970    1.0000 </r>
       <r>  -12.7620    1.0000 </r>
       <r>  -12.2480    1.0000 </r>
       <r>  -12.2176    1.0000 </r>
       <r>  -12.1434    1.0000 </r>
       <r>  -11.9462    1.0000 </r>
       <r>  -10.8762    1.0000 </r>
       <r>  -10.8680    1.0000 </r>
       <r>  -10.8480    1.0000 </r>
       <r>  -10.5845    1.0000 </r>
       <r>  -10.5287    1.0000 </r>
       <r>  -10.3973    1.0000 </r>
       <r>   -1.0278    1.0000 </r>
       <r>   -0.4295    1.0000 </r>
       <r>   -0.3249    1.0000 </r>
       <r>    0.4450    1.0000 </r>
       <r>    0.5102    1.0000 </r>
       <r>    0.9320    1.0000 </r>
       <r>    1.3417    1.0000 </r>
       <r>    1.4026    1.0000 </r>
       <r>    1.5813    1.0000 </r>
       <r>    1.6876    1.0000 </r>
       <r>    2.0085    1.0000 </r>
       <r>    2.0345    1.0000 </r>
       <r>    2.4939    1.0000 </r>
       <r>    2.6956    1.0000 </r>
       <r>    3.0021    1.0000 </r>
       <r>    3.0034    1.0000 </r>
       <r>    3.2604    1.0000 </r>
       <r>    3.9284    1.0000 </r>
       <r>    6.7695    0.6804 </r>
       <r>    8.2806    0.0000 </r>
       <r>    8.3165    0.0000 </r>
       <r>    8.4953    0.0000 </r>
       <r>    8.6299    0.0000 </r>
       <r>    9.2069    0.0000 </r>
       <r>    9.4196    0.0000 </r>
       <r>   10.6521    0.0000 </r>
      </set>
      <set comment="kpoint 10">
       <r>  -51.5974    1.0000 </r>
       <r>  -49.9905    1.0000 </r>
       <r>  -28.9294    1.0000 </r>
       <r>  -28.9092    1.0000 </r>
       <r>  -27.8877    1.0000 </r>
       <r>  -27.8847    1.0000 </r>
       <r>  -27.8656    1.0000 </r>
       <r>  -26.2164    1.0000 </r>
       <r>  -26.2159    1.0000 </r>
       <r>  -26.2050    1.0000 </r>
       <r>  -13.0599    1.0000 </r>
       <r>  -12.7822    1.0000 </r>
       <r>  -12.5121    1.0000 </r>
       <r>  -12.2336    1.0000 </r>
       <r>  -12.0677    1.0000 </r>
       <r>  -12.0027    1.0000 </r>
       <r>  -10.9944    1.0000 </r>
       <r>  -10.8720    1.0000 </r>
       <r>  -10.7572    1.0000 </r>
       <r>  -10.6719    1.0000 </r>
       <r>  -10.6497    1.0000 </r>
       <r>  -10.4849    1.0000 </r>
       <r>   -0.3435    1.0000 </r>
       <r>    0.1259    1.0000 </r>
       <r>    0.2690    1.0000 </r>
       <r>    0.3293    1.0000 </r>
       <r>    0.5340    1.0000 </r>
       <r>    0.8496    1.0000 </r>
       <r>    0.8607    1.0000 </r>
       <r>    1.3094    1.0000 </r>
       <r>    1.4745    1.0000 </r>
       <r>    1.6472    1.0000 </r>
       <r>    2.0236    1.0000 </r>
       <r>    2.3868    1.0000 </r>
       <r>    2.6228    1.0000 </r>
       <r>    2.9212    1.0000 </r>
       <r>    2.9332    1.0000 </r>
       <r>    3.3503    1.0000 </r>
       <r>    3.4390    1.0000 </r>
       <r>    3.4963    1.0000 </r>
       <r>    7.3462   -0.0674 </r>
       <r>    7.4903   -0.0091 </r>
       <r>    7.8081   -0.0083 </r>
       <r>    8.0505    0.0000 </r>
       <r>    8.6535    0.0000 </r>
       <r>    8.7153    0.0000 </r>
       <r>    9.7519    0.0000 </r>
       <r>   10.6675    0.0000 </r>
      </set>
      <set comment="kpoint 11">
       <r>  -51.5970    1.0000 </r>
       <r>  -49.9896    1.0000 </r>
       <r>  -28.9242    1.0000 </r>
       <r>  -28.9034    1.0000 </r>
       <r>  -27.9050    1.0000 </r>
       <r>  -27.8864    1.0000 </r>
       <r>  -27.8658    1.0000 </r>
       <r>  -26.2714    1.0000 </r>
       <r>  -26.2146    1.0000 </r>
       <r>  -26.2035    1.0000 </r>
       <r>  -13.0424    1.0000 </r>
       <r>  -12.5617    1.0000 </r>
       <r>  -12.3096    1.0000 </r>
       <r>  -12.1467    1.0000 </r>
       <r>  -12.0776    1.0000 </r>
       <r>  -12.0150    1.0000 </r>
       <r>  -11.0014    1.0000 </r>
       <r>  -10.8589    1.0000 </r>
       <r>  -10.8462    1.0000 </r>
       <r>  -10.7123    1.0000 </r>
       <r>  -10.5757    1.0000 </r>
       <r>  -10.4590    1.0000 </r>
       <r>   -0.6460    1.0000 </r>
       <r>   -0.3096    1.0000 </r>
       <r>   -0.0913    1.0000 </r>
       <r>   -0.0050    1.0000 </r>
       <r>    0.4834    1.0000 </r>
       <r>    0.5844    1.0000 </r>
       <r>    0.5951    1.0000 </r>
       <r>    1.0553    1.0000 </r>
       <r>    1.3339    1.0000 </r>
       <r>    1.4804    1.0000 </r>
       <r>    1.7686    1.0000 </r>
       <r>    2.2503    1.0000 </r>
       <r>    2.6006    1.0000 </r>
       <r>    2.8395    1.0000 </r>
       <r>    3.0762    1.0000 </r>
       <r>    3.3975    1.0000 </r>
       <r>    3.5503    1.0000 </r>
       <r>    3.8221    1.0000 </r>
       <r>    7.4559   -0.0455 </r>
       <r>    8.0820    0.0000 </r>
       <r>    8.2323    0.0000 </r>
       <r>    8.6367    0.0000 </r>
       <r>    8.7435    0.0000 </r>
       <r>    9.0664    0.0000 </r>
       <r>    9.8427    0.0000 </r>
       <r>   11.0160    0.0000 </r>
      </set>
      <set comment="kpoint 12">
       <r>  -51.5968    1.0000 </r>
       <r>  -49.9892    1.0000 </r>
       <r>  -28.9221    1.0000 </r>
       <r>  -28.9009    1.0000 </r>
       <r>  -27.9126    1.0000 </r>
       <r>  -27.8866    1.0000 </r>
       <r>  -27.8659    1.0000 </r>
       <r>  -26.2939    1.0000 </r>
       <r>  -26.2140    1.0000 </r>
       <r>  -26.2029    1.0000 </r>
       <r>  -13.0548    1.0000 </r>
       <r>  -12.4857    1.0000 </r>
       <r>  -12.1212    1.0000 </r>
       <r>  -12.1058    1.0000 </r>
       <r>  -12.0898    1.0000 </r>
       <r>  -12.0857    1.0000 </r>
       <r>  -10.9759    1.0000 </r>
       <r>  -10.8771    1.0000 </r>
       <r>  -10.8533    1.0000 </r>
       <r>  -10.7625    1.0000 </r>
       <r>  -10.5392    1.0000 </r>
       <r>  -10.4392    1.0000 </r>
       <r>   -1.0316    1.0000 </r>
       <r>   -0.3500    1.0000 </r>
       <r>   -0.1974    1.0000 </r>
       <r>   -0.1358    1.0000 </r>
       <r>    0.4209    1.0000 </r>
       <r>    0.4992    1.0000 </r>
       <r>    0.5681    1.0000 </r>
       <r>    0.9510    1.0000 </r>
       <r>    1.2769    1.0000 </r>
       <r>    1.5630    1.0000 </r>
       <r>    1.5856    1.0000 </r>
       <r>    2.2161    1.0000 </r>
       <r>    2.5905    1.0000 </r>
       <r>    2.8067    1.0000 </r>
       <r>    3.1174    1.0000 </r>
       <r>    3.4075    1.0000 </r>
       <r>    3.5855    1.0000 </r>
       <r>    3.9478    1.0000 </r>
       <r>    7.4769   -0.0410 </r>
       <r>    8.3312    0.0000 </r>
       <r>    8.4235    0.0000 </r>
       <r>    8.7713    0.0000 </r>
       <r>    8.9369    0.0000 </r>
       <r>    9.2909    0.0000 </r>
       <r>    9.8586    0.0000 </r>
       <r>   10.8639    0.0000 </r>
      </set>
      <set comment="kpoint 13">
       <r>  -51.5966    1.0000 </r>
       <r>  -49.9886    1.0000 </r>
       <r>  -28.9174    1.0000 </r>
       <r>  -28.8984    1.0000 </r>
       <r>  -27.9069    1.0000 </r>
       <r>  -27.9053    1.0000 </r>
       <r>  -27.8653    1.0000 </r>
       <r>  -26.2702    1.0000 </r>
       <r>  -26.2699    1.0000 </r>
       <r>  -26.2015    1.0000 </r>
       <r>  -12.8551    1.0000 </r>
       <r>  -12.3227    1.0000 </r>
       <r>  -12.2455    1.0000 </r>
       <r>  -12.1277    1.0000 </r>
       <r>  -11.9621    1.0000 </r>
       <r>  -11.9411    1.0000 </r>
       <r>  -11.0775    1.0000 </r>
       <r>  -10.9764    1.0000 </r>
       <r>  -10.8765    1.0000 </r>
       <r>  -10.8440    1.0000 </r>
       <r>  -10.5130    1.0000 </r>
       <r>  -10.4582    1.0000 </r>
       <r>   -0.7391    1.0000 </r>
       <r>   -0.5879    1.0000 </r>
       <r>   -0.4194    1.0000 </r>
       <r>   -0.1274    1.0000 </r>
       <r>    0.0524    1.0000 </r>
       <r>    0.2084    1.0000 </r>
       <r>    0.4713    1.0000 </r>
       <r>    0.8150    1.0000 </r>
       <r>    0.8565    1.0000 </r>
       <r>    1.4617    1.0000 </r>
       <r>    1.6235    1.0000 </r>
       <r>    2.3418    1.0000 </r>
       <r>    2.5025    1.0000 </r>
       <r>    2.6879    1.0000 </r>
       <r>    3.4279    1.0000 </r>
       <r>    3.7570    1.0000 </r>
       <r>    3.8713    1.0000 </r>
       <r>    3.8828    1.0000 </r>
       <r>    8.0726    0.0000 </r>
       <r>    8.1271    0.0000 </r>
       <r>    8.5047    0.0000 </r>
       <r>    9.1034    0.0000 </r>
       <r>    9.1183    0.0000 </r>
       <r>    9.1721    0.0000 </r>
       <r>    9.9951    0.0000 </r>
       <r>   11.0004    0.0000 </r>
      </set>
      <set comment="kpoint 14">
       <r>  -51.5965    1.0000 </r>
       <r>  -49.9883    1.0000 </r>
       <r>  -28.9146    1.0000 </r>
       <r>  -28.8964    1.0000 </r>
       <r>  -27.9141    1.0000 </r>
       <r>  -27.9066    1.0000 </r>
       <r>  -27.8650    1.0000 </r>
       <r>  -26.2927    1.0000 </r>
       <r>  -26.2695    1.0000 </r>
       <r>  -26.2007    1.0000 </r>
       <r>  -12.7898    1.0000 </r>
       <r>  -12.2760    1.0000 </r>
       <r>  -12.2422    1.0000 </r>
       <r>  -11.9759    1.0000 </r>
       <r>  -11.9523    1.0000 </r>
       <r>  -11.9071    1.0000 </r>
       <r>  -11.0725    1.0000 </r>
       <r>  -11.0432    1.0000 </r>
       <r>  -10.9869    1.0000 </r>
       <r>  -10.8385    1.0000 </r>
       <r>  -10.4772    1.0000 </r>
       <r>  -10.4525    1.0000 </r>
       <r>   -1.0615    1.0000 </r>
       <r>   -0.6231    1.0000 </r>
       <r>   -0.5801    1.0000 </r>
       <r>   -0.2088    1.0000 </r>
       <r>    0.0183    1.0000 </r>
       <r>    0.2033    1.0000 </r>
       <r>    0.3518    1.0000 </r>
       <r>    0.6898    1.0000 </r>
       <r>    0.7874    1.0000 </r>
       <r>    1.5079    1.0000 </r>
       <r>    1.5120    1.0000 </r>
       <r>    2.3948    1.0000 </r>
       <r>    2.4783    1.0000 </r>
       <r>    2.6334    1.0000 </r>
       <r>    3.5395    1.0000 </r>
       <r>    3.8154    1.0000 </r>
       <r>    3.9691    1.0000 </r>
       <r>    3.9995    1.0000 </r>
       <r>    8.1087    0.0000 </r>
       <r>    8.3458    0.0000 </r>
       <r>    8.6473    0.0000 </r>
       <r>    9.1667    0.0000 </r>
       <r>    9.3716    0.0000 </r>
       <r>    9.3867    0.0000 </r>
       <r>   10.0254    0.0000 </r>
       <r>   10.7279    0.0000 </r>
      </set>
      <set comment="kpoint 15">
       <r>  -51.5963    1.0000 </r>
       <r>  -49.9879    1.0000 </r>
       <r>  -28.9115    1.0000 </r>
       <r>  -28.8945    1.0000 </r>
       <r>  -27.9148    1.0000 </r>
       <r>  -27.9148    1.0000 </r>
       <r>  -27.8647    1.0000 </r>
       <r>  -26.2922    1.0000 </r>
       <r>  -26.2922    1.0000 </r>
       <r>  -26.1998    1.0000 </r>
       <r>  -12.6439    1.0000 </r>
       <r>  -12.2939    1.0000 </r>
       <r>  -12.2939    1.0000 </r>
       <r>  -11.8554    1.0000 </r>
       <r>  -11.8554    1.0000 </r>
       <r>  -11.8014    1.0000 </r>
       <r>  -11.1487    1.0000 </r>
       <r>  -11.1116    1.0000 </r>
       <r>  -11.1116    1.0000 </r>
       <r>  -10.8323    1.0000 </r>
       <r>  -10.4462    1.0000 </r>
       <r>  -10.4462    1.0000 </r>
       <r>   -1.1633    1.0000 </r>
       <r>   -0.8836    1.0000 </r>
       <r>   -0.7362    1.0000 </r>
       <r>   -0.3022    1.0000 </r>
       <r>    0.1002    1.0000 </r>
       <r>    0.1002    1.0000 </r>
       <r>    0.2730    1.0000 </r>
       <r>    0.6005    1.0000 </r>
       <r>    0.6521    1.0000 </r>
       <r>    1.4857    1.0000 </r>
       <r>    1.4857    1.0000 </r>
       <r>    2.4690    1.0000 </r>
       <r>    2.4690    1.0000 </r>
       <r>    2.5694    1.0000 </r>
       <r>    3.6778    1.0000 </r>
       <r>    3.9783    1.0000 </r>
       <r>    3.9783    1.0000 </r>
       <r>    4.1494    1.0000 </r>
       <r>    8.3518    0.0000 </r>
       <r>    8.3518    0.0000 </r>
       <r>    8.7675    0.0000 </r>
       <r>    9.4039    0.0000 </r>
       <r>    9.4039    0.0000 </r>
       <r>    9.6575    0.0000 </r>
       <r>   10.0604    0.0000 </r>
       <r>   10.6569    0.0000 </r>
      </set>
      <set comment="kpoint 16">
       <r>  -51.5985    1.0000 </r>
       <r>  -49.9931    1.0000 </r>
       <r>  -28.9402    1.0000 </r>
[...]
       <r>  -28.8997    1.0000 </r>
       <r>  -27.9141    1.0000 </r>
       <r>  -27.9066    1.0000 </r>
       <r>  -27.8640    1.0000 </r>
       <r>  -26.2927    1.0000 </r>
       <r>  -26.2695    1.0000 </r>
       <r>  -26.2026    1.0000 </r>
       <r>  -12.5112    1.0000 </r>
       <r>  -12.3887    1.0000 </r>
       <r>  -12.1767    1.0000 </r>
       <r>  -12.1243    1.0000 </r>
       <r>  -12.0999    1.0000 </r>
       <r>  -11.9279    1.0000 </r>
       <r>  -11.0763    1.0000 </r>
       <r>  -10.9735    1.0000 </r>
       <r>  -10.8649    1.0000 </r>
       <r>  -10.8156    1.0000 </r>
       <r>  -10.5579    1.0000 </r>
       <r>  -10.5411    1.0000 </r>
       <r>   -1.0561    1.0000 </r>
       <r>   -0.5235    1.0000 </r>
       <r>   -0.4848    1.0000 </r>
       <r>    0.0904    1.0000 </r>
       <r>    0.1241    1.0000 </r>
       <r>    0.3789    1.0000 </r>
       <r>    0.6478    1.0000 </r>
       <r>    0.7180    1.0000 </r>
       <r>    0.8007    1.0000 </r>
       <r>    1.0302    1.0000 </r>
       <r>    1.2301    1.0000 </r>
       <r>    1.3504    1.0000 </r>
       <r>    3.2469    1.0000 </r>
       <r>    3.3045    1.0000 </r>
       <r>    3.3424    1.0000 </r>
       <r>    3.3601    1.0000 </r>
       <r>    3.5980    1.0000 </r>
       <r>    4.0096    1.0000 </r>
       <r>    8.3360    0.0000 </r>
       <r>    8.4942    0.0000 </r>
       <r>    8.6590    0.0000 </r>
       <r>    8.7631    0.0000 </r>
       <r>    9.0248    0.0000 </r>
       <r>    9.3944    0.0000 </r>
       <r>   10.9507    0.0000 </r>
       <r>   11.1124    0.0000 </r>
      </set>
      <set comment="kpoint 45">
       <r>  -51.5963    1.0000 </r>
       <r>  -49.9879    1.0000 </r>
       <r>  -28.9085    1.0000 </r>
       <r>  -28.8975    1.0000 </r>
       <r>  -27.9148    1.0000 </r>
       <r>  -27.9148    1.0000 </r>
       <r>  -27.8637    1.0000 </r>
       <r>  -26.2922    1.0000 </r>
       <r>  -26.2922    1.0000 </r>
       <r>  -26.2016    1.0000 </r>
       <r>  -12.3840    1.0000 </r>
       <r>  -12.1387    1.0000 </r>
       <r>  -12.1387    1.0000 </r>
       <r>  -12.1025    1.0000 </r>
       <r>  -12.1025    1.0000 </r>
       <r>  -12.0994    1.0000 </r>
       <r>  -11.0669    1.0000 </r>
       <r>  -10.9205    1.0000 </r>
       <r>  -10.8986    1.0000 </r>
       <r>  -10.8986    1.0000 </r>
       <r>  -10.5682    1.0000 </r>
       <r>  -10.5682    1.0000 </r>
       <r>   -1.1633    1.0000 </r>
       <r>   -0.8328    1.0000 </r>
       <r>   -0.6165    1.0000 </r>
       <r>    0.0902    1.0000 </r>
       <r>    0.1900    1.0000 </r>
       <r>    0.1900    1.0000 </r>
       <r>    0.4746    1.0000 </r>
       <r>    0.6520    1.0000 </r>
       <r>    0.7715    1.0000 </r>
       <r>    1.1062    1.0000 </r>
       <r>    1.1062    1.0000 </r>
       <r>    1.3518    1.0000 </r>
       <r>    3.3303    1.0000 </r>
       <r>    3.3303    1.0000 </r>
       <r>    3.3971    1.0000 </r>
       <r>    3.3971    1.0000 </r>
       <r>    3.6808    1.0000 </r>
       <r>    4.1455    1.0000 </r>
       <r>    8.5165    0.0000 </r>
       <r>    8.5165    0.0000 </r>
       <r>    8.7803    0.0000 </r>
       <r>    9.0535    0.0000 </r>
       <r>    9.0535    0.0000 </r>
       <r>    9.6581    0.0000 </r>
       <r>   10.8700    0.0000 </r>
       <r>   10.8847    0.0000 </r>
      </set>
     </set>
    </set>
   </array>
  </eigenvalues>
  <separator name="orbital magnetization" >
   <v name="MAGDIPOLOUT">      0.00000000      0.00000000      0.00000000</v>
  </separator>
  <dos>
   <i name="efermi">      6.90985209 </i>
   <total>
    <array>
     <dimension dim="1">gridpoints</dimension>
     <dimension dim="2">spin</dimension>
     <field>energy</field>
     <field>total</field>
     <field>integrated</field>
     <set>
      <set comment="spin 1">
       <r>   -54.7543     0.0000     0.0000 </r>
       <r>   -54.5229     0.0000     0.0000 </r>
       <r>   -54.2915     0.0000     0.0000 </r>
       <r>   -54.0600     0.0000     0.0000 </r>
       <r>   -53.8286     0.0000     0.0000 </r>
       <r>   -53.5972     0.0000     0.0000 </r>
       <r>   -53.3658     0.0000     0.0000 </r>
       <r>   -53.1343     0.0000     0.0000 </r>
       <r>   -52.9029     0.0000     0.0000 </r>
       <r>   -52.6715     0.0000     0.0000 </r>
       <r>   -52.4400     0.0000     0.0000 </r>
       <r>   -52.2086     0.0000     0.0000 </r>
       <r>   -51.9772     0.0000     0.0000 </r>
       <r>   -51.7458     0.0000     0.0000 </r>
       <r>   -51.5143     0.0000     2.0000 </r>
       <r>   -51.2829     0.0000     2.0000 </r>
       <r>   -51.0515     0.0000     2.0000 </r>
       <r>   -50.8200     0.0000     2.0000 </r>
       <r>   -50.5886     0.0000     2.0000 </r>
       <r>   -50.3572     0.0000     2.0000 </r>
       <r>   -50.1258     0.0000     2.0000 </r>
       <r>   -49.8943     0.0000     4.0000 </r>
       <r>   -49.6629     0.0000     4.0000 </r>
       <r>   -49.4315     0.0000     4.0000 </r>
       <r>   -49.2000     0.0000     4.0000 </r>
       <r>   -48.9686     0.0000     4.0000 </r>
       <r>   -48.7372     0.0000     4.0000 </r>
       <r>   -48.5058     0.0000     4.0000 </r>
       <r>   -48.2743     0.0000     4.0000 </r>
       <r>   -48.0429     0.0000     4.0000 </r>
       <r>   -47.8115     0.0000     4.0000 </r>
       <r>   -47.5800     0.0000     4.0000 </r>
       <r>   -47.3486     0.0000     4.0000 </r>
       <r>   -47.1172     0.0000     4.0000 </r>
       <r>   -46.8858     0.0000     4.0000 </r>
       <r>   -46.6543     0.0000     4.0000 </r>
       <r>   -46.4229     0.0000     4.0000 </r>
       <r>   -46.1915     0.0000     4.0000 </r>
       <r>   -45.9600     0.0000     4.0000 </r>
       <r>   -45.7286     0.0000     4.0000 </r>
       <r>   -45.4972     0.0000     4.0000 </r>
       <r>   -45.2658     0.0000     4.0000 </r>
       <r>   -45.0343     0.0000     4.0000 </r>
       <r>   -44.8029     0.0000     4.0000 </r>
       <r>   -44.5715     0.0000     4.0000 </r>
       <r>   -44.3400     0.0000     4.0000 </r>
       <r>   -44.1086     0.0000     4.0000 </r>
       <r>   -43.8772     0.0000     4.0000 </r>
       <r>   -43.6458     0.0000     4.0000 </r>
       <r>   -43.4143     0.0000     4.0000 </r>
       <r>   -43.1829     0.0000     4.0000 </r>
       <r>   -42.9515     0.0000     4.0000 </r>
       <r>   -42.7200     0.0000     4.0000 </r>
       <r>   -42.4886     0.0000     4.0000 </r>
       <r>   -42.2572     0.0000     4.0000 </r>
       <r>   -42.0258     0.0000     4.0000 </r>
       <r>   -41.7943     0.0000     4.0000 </r>
       <r>   -41.5629     0.0000     4.0000 </r>
       <r>   -41.3315     0.0000     4.0000 </r>
       <r>   -41.1000     0.0000     4.0000 </r>
       <r>   -40.8686     0.0000     4.0000 </r>
       <r>   -40.6372     0.0000     4.0000 </r>
       <r>   -40.4058     0.0000     4.0000 </r>
       <r>   -40.1743     0.0000     4.0000 </r>
       <r>   -39.9429     0.0000     4.0000 </r>
       <r>   -39.7115     0.0000     4.0000 </r>
       <r>   -39.4800     0.0000     4.0000 </r>
       <r>   -39.2486     0.0000     4.0000 </r>
       <r>   -39.0172     0.0000     4.0000 </r>
       <r>   -38.7858     0.0000     4.0000 </r>
       <r>   -38.5543     0.0000     4.0000 </r>
       <r>   -38.3229     0.0000     4.0000 </r>
       <r>   -38.0915     0.0000     4.0000 </r>
       <r>   -37.8600     0.0000     4.0000 </r>
       <r>   -37.6286     0.0000     4.0000 </r>
       <r>   -37.3972     0.0000     4.0000 </r>
       <r>   -37.1658     0.0000     4.0000 </r>
       <r>   -36.9343     0.0000     4.0000 </r>
       <r>   -36.7029     0.0000     4.0000 </r>
       <r>   -36.4715     0.0000     4.0000 </r>
       <r>   -36.2400     0.0000     4.0000 </r>
       <r>   -36.0086     0.0000     4.0000 </r>
       <r>   -35.7772     0.0000     4.0000 </r>
       <r>   -35.5457     0.0000     4.0000 </r>
       <r>   -35.3143     0.0000     4.0000 </r>
       <r>   -35.0829     0.0000     4.0000 </r>
       <r>   -34.8515     0.0000     4.0000 </r>
       <r>   -34.6200     0.0000     4.0000 </r>
       <r>   -34.3886     0.0000     4.0000 </r>
       <r>   -34.1572     0.0000     4.0000 </r>
       <r>   -33.9257     0.0000     4.0000 </r>
       <r>   -33.6943     0.0000     4.0000 </r>
       <r>   -33.4629     0.0000     4.0000 </r>
       <r>   -33.2315     0.0000     4.0000 </r>
       <r>   -33.0000     0.0000     4.0000 </r>
       <r>   -32.7686     0.0000     4.0000 </r>
       <r>   -32.5372     0.0000     4.0000 </r>
       <r>   -32.3057     0.0000     4.0000 </r>
       <r>   -32.0743     0.0000     4.0000 </r>
       <r>   -31.8429     0.0000     4.0000 </r>
       <r>   -31.6115     0.0000     4.0000 </r>
       <r>   -31.3800     0.0000     4.0000 </r>
       <r>   -31.1486     0.0000     4.0000 </r>
       <r>   -30.9172     0.0000     4.0000 </r>
       <r>   -30.6857     0.0000     4.0000 </r>
       <r>   -30.4543     0.0000     4.0000 </r>
       <r>   -30.2229     0.0000     4.0000 </r>
       <r>   -29.9915     0.0000     4.0000 </r>
       <r>   -29.7600     0.0000     4.0000 </r>
       <r>   -29.5286     0.0000     4.0000 </r>
       <r>   -29.2972     0.0000     4.0000 </r>
       <r>   -29.0657     0.0000     4.0000 </r>
       <r>   -28.8343     0.0000     8.0000 </r>
       <r>   -28.6029     0.0000     8.0000 </r>
       <r>   -28.3715     0.0000     8.0000 </r>
       <r>   -28.1400     0.0000     8.0000 </r>
       <r>   -27.9086   122.4319     8.5155 </r>
       <r>   -27.6772     0.0000    14.0000 </r>
       <r>   -27.4457     0.0000    14.0000 </r>
       <r>   -27.2143     0.0000    14.0000 </r>
       <r>   -26.9829     0.0000    14.0000 </r>
       <r>   -26.7515     0.0000    14.0000 </r>
       <r>   -26.5200     0.0000    14.0000 </r>
       <r>   -26.2886    41.6285    14.2570 </r>
       <r>   -26.0572     0.0000    20.0000 </r>
       <r>   -25.8257     0.0000    20.0000 </r>
       <r>   -25.5943     0.0000    20.0000 </r>
       <r>   -25.3629     0.0000    20.0000 </r>
       <r>   -25.1315     0.0000    20.0000 </r>
       <r>   -24.9000     0.0000    20.0000 </r>
       <r>   -24.6686     0.0000    20.0000 </r>
       <r>   -24.4372     0.0000    20.0000 </r>
       <r>   -24.2057     0.0000    20.0000 </r>
       <r>   -23.9743     0.0000    20.0000 </r>
       <r>   -23.7429     0.0000    20.0000 </r>
       <r>   -23.5115     0.0000    20.0000 </r>
       <r>   -23.2800     0.0000    20.0000 </r>
       <r>   -23.0486     0.0000    20.0000 </r>
       <r>   -22.8172     0.0000    20.0000 </r>
       <r>   -22.5857     0.0000    20.0000 </r>
       <r>   -22.3543     0.0000    20.0000 </r>
       <r>   -22.1229     0.0000    20.0000 </r>
       <r>   -21.8915     0.0000    20.0000 </r>
       <r>   -21.6600     0.0000    20.0000 </r>
       <r>   -21.4286     0.0000    20.0000 </r>
       <r>   -21.1972     0.0000    20.0000 </r>
       <r>   -20.9657     0.0000    20.0000 </r>
       <r>   -20.7343     0.0000    20.0000 </r>
       <r>   -20.5029     0.0000    20.0000 </r>
       <r>   -20.2715     0.0000    20.0000 </r>
       <r>   -20.0400     0.0000    20.0000 </r>
       <r>   -19.8086     0.0000    20.0000 </r>
       <r>   -19.5772     0.0000    20.0000 </r>
       <r>   -19.3457     0.0000    20.0000 </r>
       <r>   -19.1143     0.0000    20.0000 </r>
       <r>   -18.8829     0.0000    20.0000 </r>
       <r>   -18.6515     0.0000    20.0000 </r>
       <r>   -18.4200     0.0000    20.0000 </r>
       <r>   -18.1886     0.0000    20.0000 </r>
       <r>   -17.9572     0.0000    20.0000 </r>
       <r>   -17.7257     0.0000    20.0000 </r>
       <r>   -17.4943     0.0000    20.0000 </r>
       <r>   -17.2629     0.0000    20.0000 </r>
       <r>   -17.0315     0.0000    20.0000 </r>
       <r>   -16.8000     0.0000    20.0000 </r>
       <r>   -16.5686     0.0000    20.0000 </r>
       <r>   -16.3372     0.0000    20.0000 </r>
       <r>   -16.1057     0.0000    20.0000 </r>
       <r>   -15.8743     0.0000    20.0000 </r>
       <r>   -15.6429     0.0000    20.0000 </r>
       <r>   -15.4115     0.0000    20.0000 </r>
       <r>   -15.1800     0.0000    20.0000 </r>
       <r>   -14.9486     0.0000    20.0000 </r>
       <r>   -14.7172     0.0000    20.0000 </r>
       <r>   -14.4857     0.0000    20.0000 </r>
       <r>   -14.2543     0.0000    20.0000 </r>
       <r>   -14.0229     0.0000    20.0000 </r>
       <r>   -13.7915     0.0000    20.0000 </r>
       <r>   -13.5600     0.0000    20.0000 </r>
       <r>   -13.3286     3.4516    20.1980 </r>
       <r>   -13.0972     2.5492    21.1944 </r>
       <r>   -12.8657     7.9131    22.5221 </r>
       <r>   -12.6343     4.1886    23.7764 </r>
       <r>   -12.4029    13.7678    25.2902 </r>
       <r>   -12.1714     8.0178    27.5897 </r>
       <r>   -11.9400    27.4807    31.0330 </r>
       <r>   -11.7086     0.0000    32.0000 </r>
       <r>   -11.4772     0.0000    32.0000 </r>
       <r>   -11.2457     0.0000    32.0000 </r>
       <r>   -11.0143     6.2424    32.3779 </r>
       <r>   -10.7829    16.5917    38.2250 </r>
       <r>   -10.5514    16.3315    41.4263 </r>
       <r>   -10.3200     0.0000    44.0000 </r>
       <r>   -10.0886     0.0000    44.0000 </r>
       <r>    -9.8572     0.0000    44.0000 </r>
       <r>    -9.6257     0.0000    44.0000 </r>
       <r>    -9.3943     0.0000    44.0000 </r>
       <r>    -9.1629     0.0000    44.0000 </r>
       <r>    -8.9314     0.0000    44.0000 </r>
       <r>    -8.7000     0.0000    44.0000 </r>
       <r>    -8.4686     0.0000    44.0000 </r>
       <r>    -8.2372     0.0000    44.0000 </r>
       <r>    -8.0057     0.0000    44.0000 </r>
       <r>    -7.7743     0.0000    44.0000 </r>
       <r>    -7.5429     0.0000    44.0000 </r>
       <r>    -7.3114     0.0000    44.0000 </r>
       <r>    -7.0800     0.0000    44.0000 </r>
       <r>    -6.8486     0.0000    44.0000 </r>
       <r>    -6.6172     0.0000    44.0000 </r>
       <r>    -6.3857     0.0000    44.0000 </r>
       <r>    -6.1543     0.0000    44.0000 </r>
       <r>    -5.9229     0.0000    44.0000 </r>
       <r>    -5.6914     0.0000    44.0000 </r>
       <r>    -5.4600     0.0000    44.0000 </r>
       <r>    -5.2286     0.0000    44.0000 </r>
       <r>    -4.9972     0.0000    44.0000 </r>
       <r>    -4.7657     0.0000    44.0000 </r>
       <r>    -4.5343     0.0000    44.0000 </r>
       <r>    -4.3029     0.0000    44.0000 </r>
       <r>    -4.0714     0.0000    44.0000 </r>
       <r>    -3.8400     0.0000    44.0000 </r>
       <r>    -3.6086     0.0000    44.0000 </r>
       <r>    -3.3772     0.0000    44.0000 </r>
       <r>    -3.1457     0.0000    44.0000 </r>
       <r>    -2.9143     0.0000    44.0000 </r>
       <r>    -2.6829     0.0000    44.0000 </r>
       <r>    -2.4514     0.0000    44.0000 </r>
       <r>    -2.2200     0.0000    44.0000 </r>
       <r>    -1.9886     0.0000    44.0000 </r>
       <r>    -1.7572     0.0000    44.0000 </r>
       <r>    -1.5257     0.0000    44.0000 </r>
       <r>    -1.2943     0.0000    44.0000 </r>
       <r>    -1.0629     0.8543    44.0429 </r>
       <r>    -0.8314     2.1349    44.5078 </r>
       <r>    -0.6000     2.4546    45.0424 </r>
       <r>    -0.3686     3.5113    45.7107 </r>
       <r>    -0.1372     7.1992    47.0103 </r>
       <r>     0.0943     6.2217    48.5967 </r>
       <r>     0.3257     6.2580    50.0664 </r>
       <r>     0.5571     8.7622    51.8397 </r>
       <r>     0.7886     8.6991    53.7097 </r>
       <r>     1.0200     8.9344    55.6764 </r>
       <r>     1.2514    10.5107    57.8131 </r>
       <r>     1.4828    14.5663    61.0244 </r>
       <r>     1.7143     6.1182    63.1742 </r>
       <r>     1.9457     5.7863    64.4464 </r>
       <r>     2.1771     7.4513    65.9175 </r>
       <r>     2.4086     3.8871    67.4726 </r>
       <r>     2.6400     8.9589    68.9143 </r>
       <r>     2.8714    12.4405    71.4927 </r>
       <r>     3.1028     7.6854    73.6988 </r>
       <r>     3.3343     8.8311    76.1849 </r>
       <r>     3.5657     7.7048    78.0914 </r>
       <r>     3.7971     4.7619    79.3678 </r>
       <r>     4.0286     0.8111    79.9518 </r>
       <r>     4.2600     0.0000    80.0000 </r>
       <r>     4.4914     0.0000    80.0000 </r>
       <r>     4.7228     0.0000    80.0000 </r>
       <r>     4.9543     0.0000    80.0000 </r>
       <r>     5.1857     0.0000    80.0000 </r>
       <r>     5.4171     0.0000    80.0000 </r>
       <r>     5.6486     0.0000    80.0000 </r>
       <r>     5.8800     0.0000    80.0000 </r>
       <r>     6.1114     0.1184    80.0077 </r>
       <r>     6.3428     0.4484    80.0627 </r>
       <r>     6.5743     1.4754    80.2826 </r>
       <r>     6.8057     2.3093    80.7618 </r>
       <r>     7.0371     2.3754    81.2931 </r>
       <r>     7.2686     2.9711    81.9077 </r>
       <r>     7.5000     4.2150    82.7092 </r>
       <r>     7.7314     4.2488    83.6579 </r>
       <r>     7.9628     4.9434    84.7098 </r>
       <r>     8.1943    10.2361    86.3591 </r>
       <r>     8.4257     6.9232    88.6454 </r>
       <r>     8.6571     4.6201    89.9190 </r>
       <r>     8.8886     3.8640    90.8195 </r>
       <r>     9.1200     3.1479    91.6723 </r>
       <r>     9.3514     2.6348    92.3167 </r>
       <r>     9.5828     2.0231    92.8634 </r>
       <r>     9.8143     1.5320    93.2653 </r>
       <r>    10.0457     1.8479    93.6477 </r>
       <r>    10.2771     1.7329    94.0591 </r>
       <r>    10.5086     1.9965    94.4880 </r>
       <r>    10.7400     2.0877    94.9607 </r>
       <r>    10.9714     2.0738    95.4353 </r>
       <r>    11.2029     1.1798    95.8992 </r>
       <r>    11.4343     0.0584    95.9984 </r>
       <r>    11.6657     0.0000    96.0000 </r>
       <r>    11.8971     0.0000    96.0000 </r>
       <r>    12.1286     0.0000    96.0000 </r>
       <r>    12.3600     0.0000    96.0000 </r>
       <r>    12.5914     0.0000    96.0000 </r>
       <r>    12.8229     0.0000    96.0000 </r>
       <r>    13.0543     0.0000    96.0000 </r>
       <r>    13.2857     0.0000    96.0000 </r>
       <r>    13.5171     0.0000    96.0000 </r>
       <r>    13.7486     0.0000    96.0000 </r>
       <r>    13.9800     0.0000    96.0000 </r>
       <r>    14.2114     0.0000    96.0000 </r>
       <r>    14.4429     0.0000    96.0000 </r>
       <r>    14.6743     0.0000    96.0000 </r>
      </set>
     </set>
    </array>
   </total>
  </dos>
 </calculation>
 <structure name="finalpos" >
  <crystal>
   <varray name="basis" >
    <v>       0.00000000       0.00000000      -4.00411470 </v>
    <v>       0.00000000       4.00411470       0.00000000 </v>
    <v>       8.00544724       0.00000000       0.00000000 </v>
   </varray>
   <i name="volume">    128.35081183 </i>
   <varray name="rec_basis" >
    <v>       0.00000000       0.00000000      -0.24974310 </v>
    <v>       0.00000000       0.24974310       0.00000000 </v>
    <v>       0.12491494       0.00000000       0.00000000 </v>
   </varray>
  </crystal>
  <varray name="positions" >
   <v>       0.50000000       0.50000000       0.25000000 </v>
   <v>       0.50000000       0.50000000       0.50096862 </v>
   <v>       0.50000000       0.00000000       0.25000000 </v>
   <v>       0.00000000       0.50000000       0.25000000 </v>
   <v>       0.50000000       0.50000000       0.99903138 </v>
   <v>       0.50000000       0.00000000       0.75000000 </v>
   <v>       0.00000000       0.50000000       0.75000000 </v>
   <v>       0.00000000       0.00000000       0.51605528 </v>
   <v>       0.00000000       0.00000000       0.98394472 </v>
   <v>       0.50000000       0.50000000       0.75000000 </v>
  </varray>
 </structure>
</modeling>
