 running on  100 total cores
 distrk:  each k-point on  100 cores,    1 groups
 distr:  one band on   25 cores,    4 groups
 using from now: INCAR     
 vasp.5.4.4.18Apr17-6-g9f103f2a35 (build May 23 2017 16:08:52) complex          
  
 POSCAR found :  4 types and      75 ions
 scaLAPACK will be used

 ----------------------------------------------------------------------------- 
|                                                                             |
|           W    W    AA    RRRRR   N    N  II  N    N   GGGG   !!!           |
|           W    W   A  A   R    R  NN   N  II  NN   N  G    G  !!!           |
|           W    W  A    A  R    R  N N  N  II  N N  N  G       !!!           |
|           W WW W  AAAAAA  RRRRR   N  N N  II  N  N N  G  GGG   !            |
|           WW  WW  A    A  R   R   N   NN  II  N   NN  G    G                |
|           W    W  A    A  R    R  N    N  II  N    N   GGGG   !!!           |
|                                                                             |
|      For optimal performance we recommend to set                            |
|        NCORE= 4 - approx SQRT( number of cores)                             |
|      NCORE specifies how many cores store one orbital (NPAR=cpu/NCORE).     |
|      This setting can  greatly improve the performance of VASP for DFT.     |
|      The default,   NCORE=1            might be grossly inefficient         |
|      on modern multi-core architectures or massively parallel machines.     |
|      Do your own testing !!!!                                               |
|      Unfortunately you need to use the default for GW and RPA calculations. |
|      (for HF NCORE is supported but not extensively tested yet)             |
|                                                                             |
 ----------------------------------------------------------------------------- 


 ----------------------------------------------------------------------------- 
|                                                                             |
|  ADVICE TO THIS USER RUNNING 'VASP/VAMP'   (HEAR YOUR MASTER'S VOICE ...):  |
|                                                                             |
|      You have a (more or less) 'large supercell' and for larger cells       |
|      it might be more efficient to use real space projection opertators     |
|      So try LREAL= Auto  in the INCAR   file.                               |
|      Mind:          For very  accurate calculation you might also keep the  |
|      reciprocal projection scheme          (i.e. LREAL=.FALSE.)             |
|                                                                             |
 ----------------------------------------------------------------------------- 

 LDA part: xc-table for Pade appr. of Perdew
 POSCAR, INCAR and KPOINTS ok, starting setup
 FFT: planning ...
 WAVECAR not read
 entering main loop
       N       E                     dE             d eps       ncg     rms          rms(c)
DAV:   1     0.651867077253E+04    0.65187E+04   -0.33025E+05 11776   0.167E+03
DAV:   2     0.507906121227E+02   -0.64679E+04   -0.62354E+04 14264   0.573E+02
DAV:   3    -0.663268143090E+03   -0.71406E+03   -0.70633E+03 17008   0.174E+02
DAV:   4    -0.709092220762E+03   -0.45824E+02   -0.45259E+02 19032   0.410E+01
DAV:   5    -0.712019193079E+03   -0.29270E+01   -0.28928E+01 20816   0.951E+00    0.839E+01
DAV:   6    -0.609765789270E+03    0.10225E+03   -0.58654E+02 16240   0.462E+01    0.568E+01
DAV:   7    -0.618810902145E+03   -0.90451E+01   -0.16069E+02 17224   0.291E+01    0.379E+01
DAV:   8    -0.624281003259E+03   -0.54701E+01   -0.51255E+01 17384   0.225E+01    0.264E+01
DAV:   9    -0.614486460801E+03    0.97945E+01   -0.63169E+01 16992   0.195E+01    0.151E+01
DAV:  10    -0.611443434774E+03    0.30430E+01   -0.15670E+01 16520   0.844E+00    0.667E+00
DAV:  11    -0.610410068491E+03    0.10334E+01   -0.27708E+00 17504   0.344E+00    0.451E+00
DAV:  12    -0.609977184646E+03    0.43288E+00   -0.18077E+00 18112   0.341E+00    0.357E+00
DAV:  13    -0.610034303810E+03   -0.57119E-01   -0.32679E+00 17024   0.316E+00    0.280E+00
DAV:  14    -0.609865260740E+03    0.16904E+00   -0.37321E-01 16712   0.168E+00    0.110E+00
DAV:  15    -0.609890702028E+03   -0.25441E-01   -0.14087E-01 16896   0.857E-01    0.121E+00
DAV:  16    -0.609870207408E+03    0.20495E-01   -0.13788E-01 15968   0.700E-01    0.566E-01
DAV:  17    -0.609860974837E+03    0.92326E-02   -0.34679E-02 17712   0.430E-01    0.400E-01
DAV:  18    -0.609862336068E+03   -0.13612E-02   -0.18679E-02 16312   0.255E-01    0.207E-01
DAV:  19    -0.609865720803E+03   -0.33847E-02   -0.57777E-03 18864   0.186E-01    0.151E-01
DAV:  20    -0.609863519683E+03    0.22011E-02   -0.24384E-03 16816   0.118E-01    0.696E-02
DAV:  21    -0.609863999154E+03   -0.47947E-03   -0.53097E-04 16992   0.533E-02    0.383E-02
DAV:  22    -0.609864845235E+03   -0.84608E-03   -0.20590E-04 17736   0.413E-02    0.428E-02
DAV:  23    -0.609863977364E+03    0.86787E-03   -0.11837E-04 13672   0.320E-02    0.165E-02
DAV:  24    -0.609864108820E+03   -0.13146E-03   -0.23551E-05  9512   0.122E-02    0.726E-03
DAV:  25    -0.609864226923E+03   -0.11810E-03   -0.60907E-06  7072   0.867E-03    0.754E-03
DAV:  26    -0.609864086572E+03    0.14035E-03   -0.44337E-06  7208   0.661E-03    0.426E-03
DAV:  27    -0.609864121828E+03   -0.35256E-04   -0.18502E-06  6944   0.442E-03    0.222E-03
DAV:  28    -0.609864153214E+03   -0.31387E-04   -0.95649E-07  6896   0.295E-03    0.265E-03
DAV:  29    -0.609864129037E+03    0.24177E-04   -0.51012E-07  6896   0.224E-03    0.135E-03
DAV:  30    -0.609864132789E+03   -0.37523E-05   -0.30781E-07  6840   0.170E-03
   1 F= -.60986413E+03 E0= -.60986413E+03  d E =-.609864E+03
 curvature:   0.00 expect dE= 0.000E+00 dE for cont linesearch  0.000E+00
 trial: gam= 0.00000 g(F)=  0.186E+00 g(S)=  0.199E+02 ort = 0.000E+00 (trialstep = 0.100E+01)
 search vector abs. value=  0.201E+02
 bond charge predicted
       N       E                     dE             d eps       ncg     rms          rms(c)
DAV:   1    -0.741559672031E+03   -0.13170E+03   -0.42924E+03 14936   0.162E+02    0.113E+02
DAV:   2    -0.699792075242E+03    0.41768E+02   -0.12021E+03 17000   0.677E+01    0.640E+01
DAV:   3    -0.751199311547E+03   -0.51407E+02   -0.59316E+02 18504   0.517E+01    0.761E+01
DAV:   4    -0.641710601661E+03    0.10949E+03   -0.34809E+02 17824   0.376E+01    0.463E+01
DAV:   5    -0.614304085107E+03    0.27407E+02   -0.10153E+02 17344   0.160E+01    0.326E+01
DAV:   6    -0.615908547427E+03   -0.16045E+01   -0.64700E+01 16432   0.128E+01    0.278E+01
DAV:   7    -0.613893995040E+03    0.20146E+01   -0.54577E+01 17336   0.133E+01    0.195E+01
DAV:   8    -0.616072794781E+03   -0.21788E+01   -0.42386E+01 16984   0.950E+00    0.281E+01
DAV:   9    -0.611018849285E+03    0.50539E+01   -0.22444E+01 17128   0.576E+00    0.150E+01
DAV:  10    -0.609377518291E+03    0.16413E+01   -0.10633E+01 17432   0.563E+00    0.145E+01
DAV:  11    -0.609133960137E+03    0.24356E+00   -0.15193E+01 16896   0.586E+00    0.705E+00
DAV:  12    -0.609327036135E+03   -0.19308E+00   -0.31697E+00 16480   0.317E+00    0.597E+00
DAV:  13    -0.608817992450E+03    0.50904E+00   -0.49098E-01 15952   0.153E+00    0.483E+00
DAV:  14    -0.608540405173E+03    0.27759E+00   -0.50460E-01 16968   0.123E+00    0.383E+00
DAV:  15    -0.608271337003E+03    0.26907E+00   -0.33885E-01 17728   0.118E+00    0.281E+00
DAV:  16    -0.608133215160E+03    0.13812E+00   -0.21604E-01 18512   0.767E-01    0.212E+00
DAV:  17    -0.608045770226E+03    0.87445E-01   -0.10257E-01 18200   0.574E-01    0.151E+00
DAV:  18    -0.607993886548E+03    0.51884E-01   -0.62695E-02 17048   0.489E-01    0.110E+00
DAV:  19    -0.607972837752E+03    0.21049E-01   -0.35984E-02 16792   0.312E-01    0.809E-01
DAV:  20    -0.607953489169E+03    0.19349E-01   -0.36297E-02 17944   0.415E-01    0.478E-01
DAV:  21    -0.607948783512E+03    0.47057E-02   -0.15595E-02 15752   0.210E-01    0.279E-01
DAV:  22    -0.607947309504E+03    0.14740E-02   -0.37199E-03 18216   0.135E-01    0.209E-01
DAV:  23    -0.607947089228E+03    0.22028E-03   -0.50441E-03 16816   0.162E-01    0.132E-01
DAV:  24    -0.607945529049E+03    0.15602E-02   -0.23450E-03 15992   0.859E-02    0.686E-02
DAV:  25    -0.607946335124E+03   -0.80607E-03   -0.32831E-04 15696   0.422E-02    0.343E-02
DAV:  26    -0.607946506270E+03   -0.17115E-03   -0.12353E-04 15672   0.214E-02    0.355E-02
DAV:  27    -0.607946230042E+03    0.27623E-03   -0.42200E-05 10688   0.151E-02    0.181E-02
DAV:  28    -0.607946207563E+03    0.22479E-04   -0.17055E-05  9400   0.108E-02    0.906E-03
DAV:  29    -0.607946210391E+03   -0.28279E-05   -0.76711E-06  8000   0.547E-03
   2 F= -.60794621E+03 E0= -.60794621E+03  d E =0.191792E+01
 trial-energy change:    1.917922  1 .order    0.702976  -20.068532   21.474484
 step:   0.4398(harm=  0.4831)  dis= 0.01227  next Energy=  -614.174270 (dE=-0.431E+01)
 bond charge predicted
       N       E                     dE             d eps       ncg     rms          rms(c)
DAV:   1    -0.659228066323E+03   -0.51282E+02   -0.13949E+03 14752   0.913E+01    0.571E+01
DAV:   2    -0.621085218423E+03    0.38143E+02   -0.13753E+02 13856   0.251E+01    0.205E+01
DAV:   3    -0.623705260987E+03   -0.26200E+01   -0.92581E+01 16512   0.245E+01    0.150E+01
DAV:   4    -0.620042121671E+03    0.36631E+01   -0.22283E+01 17480   0.131E+01    0.141E+01
DAV:   5    -0.614907962522E+03    0.51342E+01   -0.98196E+00 16480   0.768E+00    0.807E+00
DAV:   6    -0.614844191467E+03    0.63771E-01   -0.10254E+01 17352   0.678E+00    0.134E+01
DAV:   7    -0.613802980567E+03    0.10412E+01   -0.99210E+00 17416   0.462E+00    0.357E+00
DAV:   8    -0.613986631726E+03   -0.18365E+00   -0.75679E-01 18800   0.207E+00    0.535E+00
DAV:   9    -0.614019205437E+03   -0.32574E-01   -0.35307E+00 16752   0.231E+00    0.296E+00
DAV:  10    -0.613972034435E+03    0.47171E-01   -0.35364E-01 18280   0.120E+00    0.143E+00
DAV:  11    -0.613993591057E+03   -0.21557E-01   -0.15714E-01 19936   0.817E-01    0.853E-01
DAV:  12    -0.614000748176E+03   -0.71571E-02   -0.86327E-02 18392   0.528E-01    0.421E-01
DAV:  13    -0.614006341684E+03   -0.55935E-02   -0.17998E-02 18944   0.261E-01    0.484E-01
DAV:  14    -0.614006966183E+03   -0.62450E-03   -0.63495E-03 17128   0.169E-01    0.447E-01
DAV:  15    -0.614001538181E+03    0.54280E-02   -0.13381E-03 18432   0.125E-01    0.246E-01
DAV:  16    -0.614001077588E+03    0.46059E-03   -0.79072E-04 17672   0.672E-02    0.242E-01
DAV:  17    -0.613999983389E+03    0.10942E-02   -0.12678E-03 17472   0.487E-02    0.163E-01
DAV:  18    -0.613999038819E+03    0.94457E-03   -0.10851E-04 15320   0.243E-02    0.120E-01
DAV:  19    -0.613998968870E+03    0.69949E-04   -0.17935E-05 10544   0.832E-03    0.115E-01
DAV:  20    -0.613998879031E+03    0.89839E-04   -0.53495E-05 10728   0.197E-02    0.965E-02
DAV:  21    -0.613998151807E+03    0.72722E-03   -0.13278E-04 14816   0.308E-02    0.499E-02
DAV:  22    -0.613997780778E+03    0.37103E-03   -0.42403E-05 13088   0.169E-02    0.281E-02
DAV:  23    -0.613997725526E+03    0.55252E-04   -0.10918E-05  8528   0.714E-03    0.224E-02
DAV:  24    -0.613997602954E+03    0.12257E-03   -0.54019E-06  7208   0.722E-03    0.123E-02
DAV:  25    -0.613997510013E+03    0.92941E-04   -0.64468E-06  7728   0.686E-03    0.513E-03
DAV:  26    -0.613997489303E+03    0.20710E-04   -0.33696E-06  7056   0.584E-03    0.321E-03
DAV:  27    -0.613997499246E+03   -0.99426E-05   -0.14902E-06  6880   0.318E-03
   3 F= -.61399750E+03 E0= -.61399750E+03  d E =-.413337E+01
 curvature:  -0.24 expect dE=-0.162E-01 dE for cont linesearch -0.286E-02
 ZBRENT: interpolating
 opt :   0.4294  next Energy=  -614.000061 (dE=-0.414E+01)
 bond charge predicted
       N       E                     dE             d eps       ncg     rms          rms(c)
DAV:   1    -0.614014216958E+03   -0.16728E-01   -0.48957E-01 15024   0.174E+00    0.974E-01
DAV:   2    -0.614005680937E+03    0.85360E-02   -0.50728E-02 14536   0.484E-01    0.433E-01
DAV:   3    -0.613996400231E+03    0.92807E-02   -0.49339E-02 15648   0.433E-01    0.740E-01
DAV:   4    -0.614003397437E+03   -0.69972E-02   -0.45461E-02 15304   0.412E-01    0.421E-01
DAV:   5    -0.613999923218E+03    0.34742E-02   -0.37833E-02 16520   0.227E-01    0.168E-01
DAV:   6    -0.613999512864E+03    0.41035E-03   -0.13642E-03 16536   0.836E-02    0.116E-01
DAV:   7    -0.613999871815E+03   -0.35895E-03   -0.48372E-04 19080   0.497E-02    0.889E-02
DAV:   8    -0.613999698712E+03    0.17310E-03   -0.25555E-04 17080   0.388E-02    0.556E-02
DAV:   9    -0.613999995743E+03   -0.29703E-03   -0.18545E-04 17776   0.256E-02    0.250E-02
DAV:  10    -0.613999985092E+03    0.10651E-04   -0.12268E-04 13296   0.236E-02    0.258E-02
DAV:  11    -0.613999960249E+03    0.24843E-04   -0.63562E-05  8456   0.166E-02    0.119E-02
DAV:  12    -0.613999945691E+03    0.14558E-04   -0.14746E-05  7384   0.874E-03    0.862E-03
DAV:  13    -0.613999929478E+03    0.16213E-04   -0.54248E-06  6792   0.653E-03    0.428E-03
DAV:  14    -0.613999933049E+03   -0.35709E-05   -0.16236E-06  6744   0.364E-03
   4 F= -.61399993E+03 E0= -.61399993E+03  d E =-.413580E+01
 curvature:  -0.21 expect dE=-0.114E-01 dE for cont linesearch -0.272E-04
 ZBRENT: interpolating
 opt :   0.4282  next Energy=  -613.999963 (dE=-0.414E+01)
 bond charge predicted
       N       E                     dE             d eps       ncg     rms          rms(c)
DAV:   1    -0.614000003457E+03   -0.73978E-04   -0.64061E-03 15008   0.200E-01    0.111E-01
DAV:   2    -0.614000245333E+03   -0.24188E-03   -0.64297E-04 14584   0.554E-02    0.469E-02
DAV:   3    -0.613999013975E+03    0.12314E-02   -0.26680E-04 15560   0.421E-02    0.697E-02
DAV:   4    -0.614000114953E+03   -0.11010E-02   -0.16636E-04 12088   0.355E-02    0.212E-02
DAV:   5    -0.613999852664E+03    0.26229E-03   -0.77558E-05  9848   0.246E-02    0.215E-02
DAV:   6    -0.613999904781E+03   -0.52118E-04   -0.29830E-05  7664   0.153E-02    0.104E-02
DAV:   7    -0.613999924039E+03   -0.19257E-04   -0.80219E-06  7352   0.566E-03    0.979E-03
DAV:   8    -0.613999931817E+03   -0.77783E-05   -0.39896E-06  6768   0.567E-03
   5 F= -.61399993E+03 E0= -.61399993E+03  d E =-.413580E+01
 curvature:  -0.24 expect dE=-0.126E-01 dE for cont linesearch -0.976E-07
 trial: gam= 0.00277 g(F)=  0.497E-01 g(S)=  0.307E-02 ort =-0.286E-02 (trialstep = 0.886E+00)
 search vector abs. value=  0.529E-01
 bond charge predicted
       N       E                     dE             d eps       ncg     rms          rms(c)
DAV:   1    -0.614035254922E+03   -0.35331E-01   -0.53610E+00 12048   0.374E+00    0.891E-01
DAV:   2    -0.614039430171E+03   -0.41752E-02   -0.21233E-01 15104   0.962E-01    0.698E-01
DAV:   3    -0.614057568108E+03   -0.18138E-01   -0.61282E-02 16656   0.469E-01    0.766E-01
DAV:   4    -0.614046389078E+03    0.11179E-01   -0.13334E-01 16536   0.517E-01    0.505E-01
DAV:   5    -0.614040321086E+03    0.60680E-02   -0.19214E-02 16656   0.341E-01    0.249E-01
DAV:   6    -0.614040890590E+03   -0.56950E-03   -0.46576E-03 17104   0.162E-01    0.208E-01
DAV:   7    -0.614041554435E+03   -0.66384E-03   -0.73340E-03 16440   0.116E-01    0.907E-02
DAV:   8    -0.614040958632E+03    0.59580E-03   -0.27638E-04 18552   0.488E-02    0.642E-02
DAV:   9    -0.614040969598E+03   -0.10966E-04   -0.12206E-04 15464   0.293E-02    0.425E-02
DAV:  10    -0.614040990188E+03   -0.20590E-04   -0.34776E-05 12032   0.195E-02    0.237E-02
DAV:  11    -0.614040866604E+03    0.12358E-03   -0.16373E-04  9840   0.152E-02    0.131E-01
DAV:  12    -0.614040951303E+03   -0.84698E-04   -0.93224E-04  7800   0.127E-02    0.162E-02
DAV:  13    -0.614040917218E+03    0.34084E-04   -0.56434E-06  7160   0.773E-03    0.117E-02
DAV:  14    -0.614040911569E+03    0.56495E-05   -0.30632E-06  6864   0.624E-03
   6 F= -.61404091E+03 E0= -.61404091E+03  d E =-.409798E-01
 trial-energy change:   -0.040980  1 .order   -0.036301   -0.046733   -0.025870
 step:   1.2620(harm=  1.9838)  dis= 0.02074  next Energy=  -614.046768 (dE=-0.468E-01)
 bond charge predicted
       N       E                     dE             d eps       ncg     rms          rms(c)
DAV:   1    -0.614051011932E+03   -0.10095E-01   -0.96273E-01 12096   0.160E+00    0.362E-01
DAV:   2    -0.614052143965E+03   -0.11320E-02   -0.40666E-02 15064   0.412E-01    0.328E-01
DAV:   3    -0.614053188786E+03   -0.10448E-02   -0.37735E-02 17560   0.259E-01    0.305E-01
DAV:   4    -0.614055354203E+03   -0.21654E-02   -0.85636E-03 16168   0.218E-01    0.209E-01
DAV:   5    -0.614051100444E+03    0.42538E-02   -0.27002E-03 16352   0.118E-01    0.122E-01
DAV:   6    -0.614052191779E+03   -0.10913E-02   -0.20019E-03 16112   0.669E-02    0.144E-01
DAV:   7    -0.614052198254E+03   -0.64752E-05   -0.27796E-03 15968   0.522E-02    0.510E-02
DAV:   8    -0.614052161216E+03    0.37038E-04   -0.17522E-04 14616   0.248E-02    0.360E-02
DAV:   9    -0.614052172488E+03   -0.11272E-04   -0.27417E-05  8248   0.151E-02    0.286E-02
DAV:  10    -0.614052149977E+03    0.22510E-04   -0.31113E-05  6992   0.104E-02    0.241E-02
DAV:  11    -0.614052143287E+03    0.66901E-05   -0.41506E-06  7200   0.643E-03
   7 F= -.61405214E+03 E0= -.61405214E+03  d E =-.522115E-01
 curvature:  -0.57 expect dE=-0.181E-01 dE for cont linesearch -0.379E-02
 ZBRENT: increasing intervall
 opt :   2.0149  next Energy=  -614.058532 (dE=-0.586E-01)
 bond charge predicted
       N       E                     dE             d eps       ncg     rms          rms(c)
DAV:   1    -0.614058160510E+03   -0.60105E-02   -0.38515E+00 12024   0.320E+00    0.738E-01
DAV:   2    -0.614062678832E+03   -0.45183E-02   -0.16151E-01 15248   0.830E-01    0.627E-01
DAV:   3    -0.614067932182E+03   -0.52534E-02   -0.55371E-02 16904   0.419E-01    0.526E-01
DAV:   4    -0.614066578480E+03    0.13537E-02   -0.40896E-02 16000   0.351E-01    0.389E-01
DAV:   5    -0.614060770473E+03    0.58080E-02   -0.48681E-02 16848   0.306E-01    0.401E-01
DAV:   6    -0.614063137705E+03   -0.23672E-02   -0.50455E-03 15584   0.194E-01    0.141E-01
DAV:   7    -0.614061799558E+03    0.13381E-02   -0.16306E-03 17880   0.930E-02    0.877E-02
DAV:   8    -0.614062429648E+03   -0.63009E-03   -0.54233E-04 17576   0.543E-02    0.388E-02
DAV:   9    -0.614062435819E+03   -0.61712E-05   -0.30797E-04 15224   0.319E-02    0.363E-02
DAV:  10    -0.614062358985E+03    0.76835E-04   -0.39357E-04 12592   0.232E-02    0.130E-01
DAV:  11    -0.614062438514E+03   -0.79529E-04   -0.12614E-03  8440   0.151E-02    0.231E-02
DAV:  12    -0.614062436847E+03    0.16667E-05   -0.14584E-05  7040   0.106E-02
   8 F= -.61406244E+03 E0= -.61406244E+03  d E =-.625050E-01
 curvature:  -0.95 expect dE=-0.610E-01 dE for cont linesearch -0.443E-04
 trial: gam= 1.24676 g(F)=  0.597E-01 g(S)=  0.438E-02 ort =-0.157E-02 (trialstep = 0.413E+00)
 search vector abs. value=  0.142E+00
 bond charge predicted
       N       E                     dE             d eps       ncg     rms          rms(c)
DAV:   1    -0.614081101327E+03   -0.18663E-01   -0.32056E+00 12248   0.269E+00    0.587E-01
DAV:   2    -0.614082658400E+03   -0.15571E-02   -0.10978E-01 15000   0.658E-01    0.588E-01
DAV:   3    -0.614094151300E+03   -0.11493E-01   -0.55816E-02 16488   0.424E-01    0.581E-01
DAV:   4    -0.614086771607E+03    0.73797E-02   -0.58401E-02 17008   0.351E-01    0.326E-01
DAV:   5    -0.614083987232E+03    0.27844E-02   -0.54809E-03 17440   0.199E-01    0.209E-01
DAV:   6    -0.614085259447E+03   -0.12722E-02   -0.40175E-03 18192   0.130E-01    0.184E-01
DAV:   7    -0.614085759163E+03   -0.49972E-03   -0.44459E-03 15896   0.934E-02    0.731E-02
DAV:   8    -0.614084966890E+03    0.79227E-03   -0.22898E-04 16720   0.350E-02    0.356E-02
DAV:   9    -0.614085079447E+03   -0.11256E-03   -0.56344E-05 13272   0.198E-02    0.288E-02
DAV:  10    -0.614085012889E+03    0.66558E-04   -0.20734E-05  8728   0.131E-02    0.168E-02
DAV:  11    -0.614084941275E+03    0.71614E-04   -0.12494E-05  7320   0.104E-02    0.967E-03
DAV:  12    -0.614084921100E+03    0.20175E-04   -0.53093E-06  7040   0.691E-03    0.758E-03
DAV:  13    -0.614084909465E+03    0.11635E-04   -0.28287E-06  6880   0.503E-03    0.599E-03
DAV:  14    -0.614084913957E+03   -0.44921E-05   -0.75238E-05  6800   0.394E-03
   9 F= -.61408491E+03 E0= -.61408491E+03  d E =-.224771E-01
 trial-energy change:   -0.022477  1 .order   -0.022296   -0.025664   -0.018929
 step:   1.2026(harm=  1.5732)  dis= 0.03278  next Energy=  -614.104285 (dE=-0.418E-01)
 bond charge predicted
       N       E                     dE             d eps       ncg     rms          rms(c)
DAV:   1    -0.614089610164E+03   -0.47007E-02   -0.11743E+01 12232   0.514E+00    0.115E+00
DAV:   2    -0.614116540982E+03   -0.26931E-01   -0.50851E-01 15144   0.138E+00    0.142E+00
DAV:   3    -0.614124796813E+03   -0.82558E-02   -0.24668E-01 16128   0.975E-01    0.873E-01
DAV:   4    -0.614115349180E+03    0.94476E-02   -0.13457E-01 17376   0.653E-01    0.678E-01
DAV:   5    -0.614106550148E+03    0.87990E-02   -0.44422E-02 17376   0.390E-01    0.385E-01
DAV:   6    -0.614111247098E+03   -0.46970E-02   -0.20848E-02 17912   0.236E-01    0.281E-01
DAV:   7    -0.614108651478E+03    0.25956E-02   -0.56190E-03 16640   0.163E-01    0.105E-01
DAV:   8    -0.614108504527E+03    0.14695E-03   -0.66673E-04 18080   0.554E-02    0.585E-02
DAV:   9    -0.614108412422E+03    0.92105E-04   -0.29173E-04 15832   0.380E-02    0.465E-02
DAV:  10    -0.614108363666E+03    0.48756E-04   -0.41169E-04 13752   0.300E-02    0.155E-01
DAV:  11    -0.614108355842E+03    0.78241E-05   -0.34161E-03 10480   0.285E-02    0.391E-02
DAV:  12    -0.614108352283E+03    0.35582E-05   -0.20073E-05  7552   0.134E-02
  10 F= -.61410835E+03 E0= -.61410835E+03  d E =-.459154E-01
 curvature:  -1.62 expect dE=-0.226E-01 dE for cont linesearch -0.208E-02
 ZBRENT: extrapolating
 opt :   1.5330  next Energy=  -614.110587 (dE=-0.481E-01)
 bond charge predicted
       N       E                     dE             d eps       ncg     rms          rms(c)
DAV:   1    -0.614107947131E+03    0.40871E-03   -0.20546E+00 12272   0.215E+00    0.486E-01
DAV:   2    -0.614108728892E+03   -0.78176E-03   -0.97109E-02 15176   0.600E-01    0.609E-01
DAV:   3    -0.614115118472E+03   -0.63896E-02   -0.51326E-02 15976   0.455E-01    0.430E-01
DAV:   4    -0.614112065319E+03    0.30532E-02   -0.33932E-02 17488   0.276E-01    0.301E-01
DAV:   5    -0.614109093261E+03    0.29721E-02   -0.32817E-03 17472   0.151E-01    0.178E-01
DAV:   6    -0.614110796056E+03   -0.17028E-02   -0.51629E-03 17944   0.118E-01    0.166E-01
DAV:   7    -0.614110423952E+03    0.37210E-03   -0.13824E-03 16704   0.900E-02    0.671E-02
DAV:   8    -0.614109728687E+03    0.69527E-03   -0.90022E-04 16232   0.414E-02    0.616E-02
DAV:   9    -0.614109870458E+03   -0.14177E-03   -0.38790E-04 13808   0.266E-02    0.326E-02
DAV:  10    -0.614109896755E+03   -0.26297E-04   -0.19994E-05  7800   0.130E-02    0.204E-02
DAV:  11    -0.614109851326E+03    0.45428E-04   -0.10524E-04  6936   0.906E-03    0.488E-02
DAV:  12    -0.614109854591E+03   -0.32650E-05   -0.13588E-04  6888   0.671E-03    0.234E-02
DAV:  13    -0.614109838894E+03    0.15697E-04   -0.69980E-06  6800   0.532E-03    0.937E-03
DAV:  14    -0.614109851678E+03   -0.12784E-04   -0.27850E-06  6720   0.387E-03    0.172E-02
DAV:  15    -0.614109854786E+03   -0.31080E-05   -0.11858E-05  6664   0.261E-03
  11 F= -.61410985E+03 E0= -.61410985E+03  d E =-.474179E-01
 curvature:  -1.74 expect dE=-0.257E-01 dE for cont linesearch -0.315E-05
 trial: gam= 0.14366 g(F)=  0.105E-01 g(S)=  0.426E-02 ort =-0.508E-03 (trialstep = 0.637E+00)
 search vector abs. value=  0.176E-01
 bond charge predicted
       N       E                     dE             d eps       ncg     rms          rms(c)
DAV:   1    -0.614117247035E+03   -0.73954E-02   -0.13036E+00 12040   0.239E+00    0.465E-01
DAV:   2    -0.614115541626E+03    0.17054E-02   -0.68444E-02 15128   0.596E-01    0.390E-01
DAV:   3    -0.614125812363E+03   -0.10271E-01   -0.55945E-02 16016   0.386E-01    0.506E-01
DAV:   4    -0.614117784744E+03    0.80276E-02   -0.33281E-02 17000   0.304E-01    0.226E-01
DAV:   5    -0.614115125258E+03    0.26595E-02   -0.64618E-03 16992   0.161E-01    0.209E-01
DAV:   6    -0.614116366273E+03   -0.12410E-02   -0.76121E-03 16488   0.107E-01    0.107E-01
DAV:   7    -0.614116215639E+03    0.15063E-03   -0.60200E-04 16944   0.599E-02    0.616E-02
DAV:   8    -0.614116102094E+03    0.11355E-03   -0.10151E-04 14704   0.266E-02    0.474E-02
DAV:   9    -0.614116181263E+03   -0.79170E-04   -0.85362E-04  8672   0.207E-02    0.489E-02
DAV:  10    -0.614116177627E+03    0.36369E-05   -0.20946E-05  8552   0.112E-02
  12 F= -.61411618E+03 E0= -.61411618E+03  d E =-.632284E-02
 trial-energy change:   -0.006323  1 .order   -0.006311   -0.009370   -0.003253
 step:   0.9756(harm=  0.9756)  dis= 0.00850  next Energy=  -614.117031 (dE=-0.718E-02)
 bond charge predicted
       N       E                     dE             d eps       ncg     rms          rms(c)
DAV:   1    -0.614117458521E+03   -0.12773E-02   -0.36822E-01 12032   0.127E+00    0.250E-01
DAV:   2    -0.614116056940E+03    0.14016E-02   -0.30523E-02 15488   0.351E-01    0.312E-01
DAV:   3    -0.614119246444E+03   -0.31895E-02   -0.19617E-02 15200   0.240E-01    0.267E-01
DAV:   4    -0.614118498976E+03    0.74747E-03   -0.16287E-02 17248   0.140E-01    0.188E-01
DAV:   5    -0.614116346469E+03    0.21525E-02   -0.14911E-03 16824   0.951E-02    0.917E-02
DAV:   6    -0.614116884526E+03   -0.53806E-03   -0.66810E-04 15352   0.458E-02    0.692E-02
DAV:   7    -0.614116974429E+03   -0.89903E-04   -0.98761E-04 15464   0.355E-02    0.523E-02
DAV:   8    -0.614116912913E+03    0.61517E-04   -0.72304E-05 12168   0.200E-02    0.306E-02
DAV:   9    -0.614116866809E+03    0.46104E-04   -0.10215E-05  7032   0.109E-02    0.260E-02
DAV:  10    -0.614116831482E+03    0.35327E-04   -0.90327E-06  6920   0.951E-03    0.191E-02
DAV:  11    -0.614116829518E+03    0.19639E-05   -0.45330E-05  6824   0.793E-03
  13 F= -.61411683E+03 E0= -.61411683E+03  d E =-.697473E-02
 curvature:  -0.58 expect dE=-0.136E-02 dE for cont linesearch -0.228E-06
 trial: gam= 0.15790 g(F)=  0.229E-02 g(S)=  0.494E-04 ort =-0.830E-04 (trialstep = 0.705E+00)
 search vector abs. value=  0.275E-02
 bond charge predicted
       N       E                     dE             d eps       ncg     rms          rms(c)
DAV:   1    -0.614117462221E+03   -0.63074E-03   -0.27248E-01 12184   0.105E+00    0.203E-01
DAV:   2    -0.614122660487E+03   -0.51983E-02   -0.81327E-02 16240   0.432E-01    0.517E-01
DAV:   3    -0.614119378931E+03    0.32816E-02   -0.28292E-02 15912   0.351E-01    0.141E-01
DAV:   4    -0.614117478211E+03    0.19007E-02   -0.27579E-03 17112   0.989E-02    0.116E-01
DAV:   5    -0.614118070324E+03   -0.59211E-03   -0.23328E-03 17472   0.567E-02    0.142E-01
DAV:   6    -0.614118207618E+03   -0.13729E-03   -0.22306E-03 15104   0.342E-02    0.611E-02
DAV:   7    -0.614118130262E+03    0.77356E-04   -0.77052E-04 14624   0.276E-02    0.847E-02
DAV:   8    -0.614117839557E+03    0.29071E-03   -0.14718E-04 13752   0.251E-02    0.364E-02
DAV:   9    -0.614117934237E+03   -0.94680E-04   -0.19055E-04  9992   0.172E-02    0.707E-02
DAV:  10    -0.614117855865E+03    0.78372E-04   -0.33886E-04  8176   0.134E-02    0.293E-02
DAV:  11    -0.614117853103E+03    0.27620E-05   -0.12049E-05  7032   0.839E-03
  14 F= -.61411785E+03 E0= -.61411785E+03  d E =-.102359E-02
 trial-energy change:   -0.001024  1 .order   -0.001157   -0.001636   -0.000677
 step:   1.2021(harm=  1.2021)  dis= 0.00401  next Energy=  -614.118225 (dE=-0.140E-02)
 bond charge predicted
       N       E                     dE             d eps       ncg     rms          rms(c)
DAV:   1    -0.614118102496E+03   -0.24663E-03   -0.13803E-01 12184   0.739E-01    0.204E-01
DAV:   2    -0.614125954728E+03   -0.78522E-02   -0.11049E-01 16568   0.462E-01    0.638E-01
DAV:   3    -0.614119721447E+03    0.62333E-02   -0.43010E-02 15936   0.390E-01    0.154E-01
DAV:   4    -0.614117734714E+03    0.19867E-02   -0.30887E-03 16824   0.100E-01    0.125E-01
DAV:   5    -0.614118188159E+03   -0.45344E-03   -0.25907E-03 16952   0.600E-02    0.117E-01
DAV:   6    -0.614118354629E+03   -0.16647E-03   -0.12170E-03 15048   0.332E-02    0.618E-02
DAV:   7    -0.614118379730E+03   -0.25101E-04   -0.24773E-04 11560   0.212E-02    0.871E-02
DAV:   8    -0.614118110010E+03    0.26972E-03   -0.52330E-04 11392   0.230E-02    0.504E-02
DAV:   9    -0.614118235603E+03   -0.12559E-03   -0.24128E-04  8160   0.157E-02    0.994E-02
DAV:  10    -0.614118206866E+03    0.28737E-04   -0.63692E-04  7672   0.140E-02    0.413E-02
DAV:  11    -0.614118193784E+03    0.13082E-04   -0.19711E-05  6952   0.875E-03    0.336E-02
DAV:  12    -0.614118215170E+03   -0.21386E-04   -0.50189E-06  6872   0.662E-03    0.301E-02
DAV:  13    -0.614118219005E+03   -0.38350E-05   -0.50448E-05  6896   0.765E-03
  15 F= -.61411822E+03 E0= -.61411822E+03  d E =-.138949E-02
 curvature:  -0.71 expect dE=-0.106E-02 dE for cont linesearch -0.855E-06
 trial: gam= 0.66287 g(F)=  0.132E-02 g(S)=  0.169E-03 ort =-0.575E-04 (trialstep = 0.804E+00)
 search vector abs. value=  0.262E-02
 bond charge predicted
       N       E                     dE             d eps       ncg     rms          rms(c)
DAV:   1    -0.614118557383E+03   -0.34221E-03   -0.28298E-01 12504   0.102E+00    0.198E-01
DAV:   2    -0.614123170998E+03   -0.46136E-02   -0.71379E-02 15352   0.397E-01    0.486E-01
DAV:   3    -0.614120418577E+03    0.27524E-02   -0.24797E-02 15472   0.326E-01    0.147E-01
DAV:   4    -0.614118466629E+03    0.19519E-02   -0.18717E-03 18200   0.989E-02    0.105E-01
DAV:   5    -0.614119068703E+03   -0.60207E-03   -0.51417E-04 16360   0.438E-02    0.750E-02
DAV:   6    -0.614118602385E+03    0.46632E-03   -0.75056E-04 15248   0.428E-02    0.127E-01
DAV:   7    -0.614118536738E+03    0.65648E-04   -0.23300E-03 14048   0.395E-02    0.603E-02
DAV:   8    -0.614118760210E+03   -0.22347E-03   -0.19161E-04 13496   0.316E-02    0.413E-02
DAV:   9    -0.614118715686E+03    0.44523E-04   -0.58967E-04  9576   0.199E-02    0.112E-01
DAV:  10    -0.614118679622E+03    0.36064E-04   -0.88697E-06  7008   0.844E-03    0.106E-01
DAV:  11    -0.614118678708E+03    0.91398E-06   -0.25876E-06  6872   0.478E-03
  16 F= -.61411868E+03 E0= -.61411868E+03  d E =-.459703E-03
 trial-energy change:   -0.000460  1 .order   -0.000926   -0.001170   -0.000682
 step:   1.9292(harm=  1.9292)  dis= 0.00595  next Energy=  -614.119622 (dE=-0.140E-02)
 bond charge predicted
       N       E                     dE             d eps       ncg     rms          rms(c)
DAV:   1    -0.614117861125E+03    0.81850E-03   -0.55208E-01 12456   0.142E+00    0.246E-01
DAV:   2    -0.614122451411E+03   -0.45903E-02   -0.67474E-02 15456   0.429E-01    0.456E-01
DAV:   3    -0.614120698606E+03    0.17528E-02   -0.25334E-02 15752   0.319E-01    0.204E-01
DAV:   4    -0.614118964861E+03    0.17337E-02   -0.93884E-03 17816   0.130E-01    0.159E-01
DAV:   5    -0.614118910762E+03    0.54099E-04   -0.12352E-03 16528   0.766E-02    0.907E-02
DAV:   6    -0.614118780256E+03    0.13051E-03   -0.12100E-03 17464   0.505E-02    0.134E-01
DAV:   7    -0.614118986022E+03   -0.20577E-03   -0.27046E-03 15648   0.491E-02    0.575E-02
DAV:   8    -0.614118957836E+03    0.28186E-04   -0.23719E-04 14440   0.313E-02    0.101E-01
DAV:   9    -0.614119005045E+03   -0.47208E-04   -0.96329E-04  8824   0.173E-02    0.429E-02
DAV:  10    -0.614118706413E+03    0.29863E-03   -0.38103E-05 10416   0.176E-02    0.333E-02
DAV:  11    -0.614118885819E+03   -0.17941E-03   -0.37571E-05  8072   0.110E-02    0.213E-02
DAV:  12    -0.614118815945E+03    0.69874E-04   -0.60280E-05  7232   0.736E-03    0.913E-02
DAV:  13    -0.614118807856E+03    0.80892E-05   -0.14982E-04  6808   0.489E-03    0.249E-02
DAV:  14    -0.614118804782E+03    0.30740E-05   -0.78688E-05  6728   0.535E-03
  17 F= -.61411880E+03 E0= -.61411880E+03  d E =-.585777E-03
 curvature:  -1.74 expect dE=-0.282E-02 dE for cont linesearch -0.229E-08
 trial: gam= 0.92280 g(F)=  0.158E-02 g(S)=  0.436E-04 ort =-0.186E-05 (trialstep = 0.701E+00)
 search vector abs. value=  0.385E-02
 bond charge predicted
       N       E                     dE             d eps       ncg     rms          rms(c)
DAV:   1    -0.614118966632E+03   -0.15878E-03   -0.30038E-01 12248   0.111E+00    0.225E-01
DAV:   2    -0.614125702037E+03   -0.67354E-02   -0.10362E-01 15648   0.480E-01    0.609E-01
DAV:   3    -0.614120047119E+03    0.56549E-02   -0.32532E-02 15920   0.390E-01    0.148E-01
DAV:   4    -0.614118957460E+03    0.10897E-02   -0.70659E-03 17840   0.116E-01    0.146E-01
DAV:   5    -0.614119102250E+03   -0.14479E-03   -0.20316E-03 16464   0.689E-02    0.108E-01
DAV:   6    -0.614119020428E+03    0.81821E-04   -0.17186E-03 16232   0.460E-02    0.995E-02
DAV:   7    -0.614119221711E+03   -0.20128E-03   -0.99154E-04 14744   0.306E-02    0.944E-02
DAV:   8    -0.614118934322E+03    0.28739E-03   -0.11351E-03 13312   0.298E-02    0.513E-02
DAV:   9    -0.614119235926E+03   -0.30160E-03   -0.14779E-04  9656   0.194E-02    0.504E-02
DAV:  10    -0.614119000774E+03    0.23515E-03   -0.31720E-05  8144   0.127E-02    0.384E-02
DAV:  11    -0.614119009343E+03   -0.85685E-05   -0.99239E-06  6880   0.664E-03
  18 F= -.61411901E+03 E0= -.61411901E+03  d E =-.204560E-03
 trial-energy change:   -0.000205  1 .order   -0.000738   -0.001135   -0.000342
 step:   1.0040(harm=  1.0040)  dis= 0.00392  next Energy=  -614.119617 (dE=-0.812E-03)
 bond charge predicted
       N       E                     dE             d eps       ncg     rms          rms(c)
DAV:   1    -0.614118993284E+03    0.74902E-05   -0.56004E-02 12320   0.480E-01    0.106E-01
DAV:   2    -0.614120899382E+03   -0.19061E-02   -0.39608E-02 15784   0.238E-01    0.387E-01
DAV:   3    -0.614119301852E+03    0.15975E-02   -0.98415E-03 15824   0.201E-01    0.672E-02
DAV:   4    -0.614118782500E+03    0.51935E-03   -0.18017E-03 17720   0.548E-02    0.859E-02
DAV:   5    -0.614118773886E+03    0.86133E-05   -0.77572E-04 14784   0.346E-02    0.401E-02
DAV:   6    -0.614118990501E+03   -0.21661E-03   -0.94513E-05 12104   0.209E-02    0.239E-02
DAV:   7    -0.614118702050E+03    0.28845E-03   -0.60321E-05 10240   0.159E-02    0.258E-02
DAV:   8    -0.614118903883E+03   -0.20183E-03   -0.33676E-05  8800   0.133E-02    0.723E-03
DAV:   9    -0.614118869488E+03    0.34395E-04   -0.47390E-06  6960   0.604E-03    0.436E-03
DAV:  10    -0.614118856178E+03    0.13311E-04   -0.24331E-06  6848   0.484E-03    0.278E-03
DAV:  11    -0.614118857849E+03   -0.16714E-05   -0.10686E-06  6800   0.296E-03
  19 F= -.61411886E+03 E0= -.61411886E+03  d E =-.530668E-04
 curvature:  -1.19 expect dE=-0.862E-03 dE for cont linesearch -0.277E-06
 trial: gam= 0.24017 g(F)=  0.658E-03 g(S)=  0.638E-04 ort =-0.299E-04 (trialstep = 0.762E+00)
 search vector abs. value=  0.930E-03
 bond charge predicted
       N       E                     dE             d eps       ncg     rms          rms(c)
DAV:   1    -0.614119374374E+03   -0.51820E-03   -0.10477E-01 12128   0.672E-01    0.150E-01
DAV:   2    -0.614120798826E+03   -0.14245E-02   -0.22572E-02 16048   0.224E-01    0.270E-01
DAV:   3    -0.614120130025E+03    0.66880E-03   -0.65796E-03 15880   0.144E-01    0.139E-01
DAV:   4    -0.614120399109E+03   -0.26908E-03   -0.42176E-03 17200   0.649E-02    0.118E-01
DAV:   5    -0.614119027603E+03    0.13715E-02   -0.24275E-03 16456   0.587E-02    0.124E-01
DAV:   6    -0.614119627152E+03   -0.59955E-03   -0.52338E-04 13520   0.281E-02    0.390E-02
DAV:   7    -0.614119747854E+03   -0.12070E-03   -0.35875E-04 11520   0.223E-02    0.628E-02
DAV:   8    -0.614119635613E+03    0.11224E-03   -0.52460E-04  9720   0.207E-02    0.509E-02
DAV:   9    -0.614119516398E+03    0.11922E-03   -0.30464E-04  8792   0.177E-02    0.972E-02
DAV:  10    -0.614119542554E+03   -0.26156E-04   -0.36811E-04  7216   0.109E-02    0.378E-02
DAV:  11    -0.614119509567E+03    0.32987E-04   -0.83069E-06  6856   0.685E-03    0.325E-02
DAV:  12    -0.614119498295E+03    0.11272E-04   -0.46384E-06  6776   0.486E-03    0.233E-02
DAV:  13    -0.614119464352E+03    0.33943E-04   -0.21274E-04  7160   0.792E-03    0.992E-02
DAV:  14    -0.614119492969E+03   -0.28617E-04   -0.21011E-04  6736   0.690E-03    0.859E-02
DAV:  15    -0.614119509762E+03   -0.16793E-04   -0.21779E-04  6512   0.477E-03    0.708E-02
DAV:  16    -0.614119494722E+03    0.15040E-04   -0.45859E-06  6496   0.354E-03    0.489E-02
DAV:  17    -0.614119495350E+03   -0.62826E-06   -0.38148E-05  6464   0.268E-03
  20 F= -.61411950E+03 E0= -.61411950E+03  d E =-.637501E-03
 trial-energy change:   -0.000638  1 .order   -0.000466   -0.000544   -0.000387
 step:   2.6370(harm=  2.6370)  dis= 0.00597  next Energy=  -614.119800 (dE=-0.942E-03)
 bond charge predicted
       N       E                     dE             d eps       ncg     rms          rms(c)
DAV:   1    -0.614118500166E+03    0.99456E-03   -0.62890E-01 12096   0.166E+00    0.273E-01
DAV:   2    -0.614123356839E+03   -0.48567E-02   -0.87406E-02 15704   0.496E-01    0.514E-01
DAV:   3    -0.614122810109E+03    0.54673E-03   -0.40765E-02 15776   0.350E-01    0.281E-01
DAV:   4    -0.614119686372E+03    0.31237E-02   -0.14759E-02 16848   0.171E-01    0.202E-01
DAV:   5    -0.614119346737E+03    0.33963E-03   -0.98998E-03 17616   0.102E-01    0.178E-01
DAV:   6    -0.614119836413E+03   -0.48968E-03   -0.81462E-04 16504   0.639E-02    0.839E-02
DAV:   7    -0.614119486035E+03    0.35038E-03   -0.10918E-03 15728   0.458E-02    0.110E-01
DAV:   8    -0.614119511404E+03   -0.25368E-04   -0.96924E-04 14320   0.319E-02    0.576E-02
DAV:   9    -0.614119771674E+03   -0.26027E-03   -0.46648E-04 12712   0.255E-02    0.956E-02
DAV:  10    -0.614119774142E+03   -0.24681E-05   -0.69719E-04  9760   0.195E-02    0.560E-02
DAV:  11    -0.614119648951E+03    0.12519E-03   -0.85726E-05  7864   0.145E-02    0.434E-02
DAV:  12    -0.614119609197E+03    0.39753E-04   -0.58818E-05  7112   0.851E-03    0.902E-02
DAV:  13    -0.614119608426E+03    0.77094E-06   -0.44725E-04  6824   0.791E-03    0.443E-02
DAV:  14    -0.614119620728E+03   -0.12302E-04   -0.30103E-06  6704   0.520E-03    0.414E-02
DAV:  15    -0.614119616440E+03    0.42879E-05   -0.14472E-06  6608   0.341E-03
  21 F= -.61411962E+03 E0= -.61411962E+03  d E =-.758591E-03
 curvature:  -1.72 expect dE=-0.291E-02 dE for cont linesearch -0.110E-02
 ZBRENT: interpolating
 opt :   1.5059  next Energy=  -614.119684 (dE=-0.827E-03)
 bond charge predicted
       N       E                     dE             d eps       ncg     rms          rms(c)
DAV:   1    -0.614119095059E+03    0.52567E-03   -0.23101E-01 12112   0.997E-01    0.173E-01
DAV:   2    -0.614121641639E+03   -0.25466E-02   -0.27845E-02 15776   0.284E-01    0.294E-01
DAV:   3    -0.614120982754E+03    0.65888E-03   -0.68684E-03 15992   0.177E-01    0.163E-01
DAV:   4    -0.614119918578E+03    0.10642E-02   -0.91428E-03 16688   0.977E-02    0.157E-01
DAV:   5    -0.614120039327E+03   -0.12075E-03   -0.25852E-03 16688   0.638E-02    0.116E-01
DAV:   6    -0.614119841026E+03    0.19830E-03   -0.17768E-03 15064   0.419E-02    0.976E-02
DAV:   7    -0.614119696855E+03    0.14417E-03   -0.67911E-04 13200   0.247E-02    0.805E-02
DAV:   8    -0.614120021091E+03   -0.32424E-03   -0.53538E-04 12496   0.258E-02    0.894E-02
DAV:   9    -0.614120204908E+03   -0.18382E-03   -0.93438E-04  9456   0.179E-02    0.865E-02
DAV:  10    -0.614119795358E+03    0.40955E-03   -0.22142E-04  9960   0.192E-02    0.623E-02
DAV:  11    -0.614119752064E+03    0.43294E-04   -0.17078E-04  7432   0.823E-03    0.756E-02
DAV:  12    -0.614119826439E+03   -0.74376E-04   -0.20822E-04  7056   0.686E-03    0.674E-02
DAV:  13    -0.614119809039E+03    0.17400E-04   -0.10940E-04  6544   0.459E-03    0.450E-02
DAV:  14    -0.614119805785E+03    0.32545E-05   -0.12070E-04  6512   0.483E-03    0.740E-02
DAV:  15    -0.614119803085E+03    0.26995E-05   -0.17635E-04  6464   0.401E-03    0.622E-02
DAV:  16    -0.614119789713E+03    0.13373E-04   -0.12945E-04  6448   0.342E-03    0.699E-02
DAV:  17    -0.614119782361E+03    0.73521E-05   -0.54105E-05  6336   0.322E-03
  22 F= -.61411978E+03 E0= -.61411978E+03  d E =-.924512E-03
 curvature:  -0.29 expect dE=-0.145E-03 dE for cont linesearch -0.130E-04
 ZBRENT: interpolating
 opt :   1.2940  next Energy=  -614.119804 (dE=-0.946E-03)
 bond charge predicted
       N       E                     dE             d eps       ncg     rms          rms(c)
DAV:   1    -0.614119719048E+03    0.70664E-04   -0.82998E-03 12224   0.187E-01    0.686E-02
DAV:   2    -0.614120414429E+03   -0.69538E-03   -0.13308E-02 16752   0.119E-01    0.248E-01
DAV:   3    -0.614120873475E+03   -0.45905E-03   -0.95872E-03 15904   0.107E-01    0.173E-01
DAV:   4    -0.614119824865E+03    0.10486E-02   -0.19914E-03 15216   0.521E-02    0.900E-02
DAV:   5    -0.614119706314E+03    0.11855E-03   -0.33996E-04 12800   0.183E-02    0.661E-02
DAV:   6    -0.614119790972E+03   -0.84658E-04   -0.44425E-04  8192   0.124E-02    0.777E-02
DAV:   7    -0.614119940165E+03   -0.14919E-03   -0.34676E-04  8576   0.124E-02    0.758E-02
DAV:   8    -0.614119876310E+03    0.63855E-04   -0.16209E-04  6968   0.803E-03    0.527E-02
DAV:   9    -0.614119759272E+03    0.11704E-03   -0.11485E-04  7808   0.767E-03    0.769E-02
DAV:  10    -0.614119744889E+03    0.14382E-04   -0.16722E-04  6840   0.478E-03    0.800E-02
DAV:  11    -0.614119770300E+03   -0.25411E-04   -0.28037E-04  6712   0.519E-03    0.552E-02
DAV:  12    -0.614119759648E+03    0.10652E-04   -0.58409E-06  6560   0.353E-03    0.493E-02
DAV:  13    -0.614119745048E+03    0.14600E-04   -0.11154E-05  6408   0.246E-03    0.457E-02
DAV:  14    -0.614119753059E+03   -0.80109E-05   -0.78354E-05  6320   0.226E-03
  23 F= -.61411975E+03 E0= -.61411975E+03  d E =-.895210E-03
 curvature:  -0.49 expect dE=-0.145E-03 dE for cont linesearch -0.136E-04
 ZBRENT: bisectioning
 opt :   1.0279  next Energy=  -614.119789 (dE=-0.931E-03)
 bond charge predicted
       N       E                     dE             d eps       ncg     rms          rms(c)
DAV:   1    -0.614119619155E+03    0.12589E-03   -0.12680E-02 12208   0.234E-01    0.584E-02
DAV:   2    -0.614120478629E+03   -0.85947E-03   -0.11514E-02 16696   0.106E-01    0.235E-01
DAV:   3    -0.614120423469E+03    0.55160E-04   -0.57740E-03 15784   0.925E-02    0.165E-01
DAV:   4    -0.614119925864E+03    0.49761E-03   -0.25765E-03 14504   0.350E-02    0.959E-02
DAV:   5    -0.614119664846E+03    0.26102E-03   -0.54150E-04 11816   0.198E-02    0.510E-02
DAV:   6    -0.614119624880E+03    0.39966E-04   -0.24432E-04  8104   0.131E-02    0.675E-02
DAV:   7    -0.614119619082E+03    0.57978E-05   -0.40740E-04  7272   0.122E-02    0.887E-02
DAV:   8    -0.614119733986E+03   -0.11490E-03   -0.26040E-04  6968   0.102E-02    0.457E-02
DAV:   9    -0.614119537801E+03    0.19619E-03   -0.27732E-05  7888   0.865E-03    0.473E-02
DAV:  10    -0.614119673356E+03   -0.13556E-03   -0.56926E-05  7672   0.814E-03    0.804E-02
DAV:  11    -0.614119620399E+03    0.52957E-04   -0.10938E-04  6880   0.495E-03    0.424E-02
DAV:  12    -0.614119618000E+03    0.23989E-05   -0.11541E-04  6544   0.420E-03    0.817E-02
DAV:  13    -0.614119626601E+03   -0.86013E-05   -0.77396E-05  6480   0.318E-03
  24 F= -.61411963E+03 E0= -.61411963E+03  d E =-.768752E-03
 curvature:  -1.29 expect dE=-0.222E-03 dE for cont linesearch -0.767E-06
 trial: gam= 0.20753 g(F)=  0.171E-03 g(S)=  0.136E-05 ort = 0.235E-04 (trialstep = 0.815E+00)
 search vector abs. value=  0.222E-03
 bond charge predicted
       N       E                     dE             d eps       ncg     rms          rms(c)
DAV:   1    -0.614119741926E+03   -0.12393E-03   -0.29045E-02 12392   0.357E-01    0.717E-02
DAV:   2    -0.614120157441E+03   -0.41551E-03   -0.13611E-02 15816   0.146E-01    0.250E-01
DAV:   3    -0.614120875424E+03   -0.71798E-03   -0.11921E-02 15936   0.117E-01    0.182E-01
DAV:   4    -0.614119856489E+03    0.10189E-02   -0.25138E-03 15368   0.601E-02    0.943E-02
DAV:   5    -0.614119688858E+03    0.16763E-03   -0.56802E-04 13672   0.186E-02    0.501E-02
DAV:   6    -0.614119806238E+03   -0.11738E-03   -0.14846E-04 10104   0.158E-02    0.612E-02
DAV:   7    -0.614119848223E+03   -0.41986E-04   -0.20246E-04  7288   0.118E-02    0.409E-02
DAV:   8    -0.614119659153E+03    0.18907E-03   -0.46642E-05  8080   0.104E-02    0.547E-02
DAV:   9    -0.614119817131E+03   -0.15798E-03   -0.30128E-04  7480   0.894E-03    0.651E-02
DAV:  10    -0.614119831981E+03   -0.14850E-04   -0.10634E-04  6856   0.630E-03    0.364E-02
DAV:  11    -0.614119766955E+03    0.65026E-04   -0.36622E-05  6744   0.601E-03    0.530E-02
DAV:  12    -0.614119776147E+03   -0.91914E-05   -0.42895E-05  6480   0.347E-03
  25 F= -.61411978E+03 E0= -.61411978E+03  d E =-.149546E-03
 trial-energy change:   -0.000150  1 .order   -0.000095   -0.000144   -0.000046
 step:   0.8977(harm=  1.2004)  dis= 0.00055  next Energy=  -614.119779 (dE=-0.152E-03)
 bond charge predicted
       N       E                     dE             d eps       ncg     rms          rms(c)
DAV:   1    -0.614119788441E+03   -0.21485E-04   -0.36337E-04 11784   0.362E-02    0.429E-02
DAV:   2    -0.614120132107E+03   -0.34367E-03   -0.10063E-02 16200   0.899E-02    0.231E-01
DAV:   3    -0.614120294418E+03   -0.16231E-03   -0.62422E-03 14976   0.836E-02    0.145E-01
DAV:   4    -0.614119955065E+03    0.33935E-03   -0.15716E-03 12424   0.301E-02    0.934E-02
DAV:   5    -0.614119750777E+03    0.20429E-03   -0.22147E-04  9360   0.118E-02    0.468E-02
DAV:   6    -0.614119835961E+03   -0.85184E-04   -0.12035E-04  7520   0.932E-03    0.845E-02
DAV:   7    -0.614119804556E+03    0.31406E-04   -0.39941E-06  6904   0.487E-03    0.796E-02
DAV:   8    -0.614119804750E+03   -0.19438E-06   -0.14990E-06  6824   0.302E-03
  26 F= -.61411980E+03 E0= -.61411980E+03  d E =-.178149E-03
 curvature:  -0.29 expect dE=-0.150E-03 dE for cont linesearch -0.642E-06
 trial: gam= 3.05800 g(F)=  0.519E-03 g(S)=  0.155E-05 ort = 0.222E-04 (trialstep = 0.676E-01)
 search vector abs. value=  0.273E-02
 bond charge predicted
       N       E                     dE             d eps       ncg     rms          rms(c)
DAV:   1    -0.614119865824E+03   -0.61269E-04   -0.26309E-03 11776   0.105E-01    0.887E-02
DAV:   2    -0.614126295884E+03   -0.64301E-02   -0.33213E-02 17800   0.221E-01    0.366E-01
DAV:   3    -0.614119697607E+03    0.65983E-02   -0.84571E-03 16912   0.197E-01    0.122E-01
DAV:   4    -0.614120182705E+03   -0.48510E-03   -0.11389E-03 16400   0.418E-02    0.981E-02
DAV:   5    -0.614120204467E+03   -0.21763E-04   -0.77174E-04 11664   0.191E-02    0.546E-02
DAV:   6    -0.614119900868E+03    0.30360E-03   -0.97933E-05  9008   0.139E-02    0.494E-02
DAV:   7    -0.614119878990E+03    0.21878E-04   -0.48336E-05  7192   0.863E-03    0.418E-02
DAV:   8    -0.614119853567E+03    0.25423E-04   -0.15574E-04  6992   0.579E-03    0.792E-02
DAV:   9    -0.614119837191E+03    0.16376E-04   -0.15242E-04  6944   0.515E-03    0.414E-02
DAV:  10    -0.614119839434E+03   -0.22432E-05   -0.75831E-06  6872   0.326E-03
  27 F= -.61411984E+03 E0= -.61411984E+03  d E =-.346839E-04
 trial-energy change:   -0.000035  1 .order   -0.000030   -0.000040   -0.000020
 step:   0.1352(harm=  0.1352)  dis= 0.00030  next Energy=  -614.119845 (dE=-0.398E-04)
 bond charge predicted
       N       E                     dE             d eps       ncg     rms          rms(c)
DAV:   1    -0.614119886657E+03   -0.49466E-04   -0.26811E-03 11928   0.105E-01    0.749E-02
DAV:   2    -0.614124913565E+03   -0.50269E-02   -0.26505E-02 17376   0.185E-01    0.325E-01
DAV:   3    -0.614119724858E+03    0.51887E-02   -0.62803E-03 16688   0.166E-01    0.123E-01
DAV:   4    -0.614120161814E+03   -0.43696E-03   -0.86756E-04 15936   0.355E-02    0.915E-02
DAV:   5    -0.614120176098E+03   -0.14284E-04   -0.41399E-04  9832   0.139E-02    0.575E-02
DAV:   6    -0.614119909671E+03    0.26643E-03   -0.11787E-04  8768   0.125E-02    0.583E-02
DAV:   7    -0.614119897448E+03    0.12223E-04   -0.10800E-05  7080   0.616E-03    0.506E-02
DAV:   8    -0.614119895101E+03    0.23467E-05   -0.34960E-06  6944   0.408E-03
  28 F= -.61411990E+03 E0= -.61411990E+03  d E =-.903509E-04
 curvature:  -0.31 expect dE=-0.634E-04 dE for cont linesearch -0.142E-05
 ZBRENT: increasing intervall
 opt :   0.2705  next Energy=  -614.119885 (dE=-0.806E-04)
 bond charge predicted
       N       E                     dE             d eps       ncg     rms          rms(c)
DAV:   1    -0.614119962351E+03   -0.64903E-04   -0.10968E-02 12144   0.210E-01    0.767E-02
DAV:   2    -0.614124741775E+03   -0.47794E-02   -0.25493E-02 17176   0.181E-01    0.322E-01
DAV:   3    -0.614119764975E+03    0.49768E-02   -0.61792E-03 16312   0.164E-01    0.907E-02
DAV:   4    -0.614120299870E+03   -0.53490E-03   -0.52183E-04 16416   0.384E-02    0.895E-02
DAV:   5    -0.614120311936E+03   -0.12066E-04   -0.43955E-04 10472   0.144E-02    0.647E-02
DAV:   6    -0.614120047015E+03    0.26492E-03   -0.29818E-04  8824   0.167E-02    0.622E-02
DAV:   7    -0.614120033510E+03    0.13505E-04   -0.31009E-04  7168   0.966E-03    0.649E-02
DAV:   8    -0.614119984602E+03    0.48908E-04   -0.53033E-05  7160   0.583E-03    0.634E-02
DAV:   9    -0.614120034082E+03   -0.49480E-04   -0.25114E-04  6904   0.666E-03    0.622E-02
DAV:  10    -0.614120007903E+03    0.26180E-04   -0.38799E-05  6848   0.575E-03    0.605E-02
DAV:  11    -0.614120025932E+03   -0.18029E-04   -0.98462E-05  6832   0.490E-03    0.558E-02
DAV:  12    -0.614120026643E+03   -0.71085E-06   -0.11097E-04  6752   0.347E-03    0.641E-02
DAV:  13    -0.614120023881E+03    0.27614E-05   -0.78697E-05  6704   0.289E-03
  29 F= -.61412002E+03 E0= -.61412002E+03  d E =-.219131E-03
 curvature:   2.15 expect dE= 0.630E-03 dE for cont linesearch  0.216E-04
 ZBRENT: bracketing found
 ZBRENT: interpolating
 opt :   0.1896  next Energy=  -614.119898 (dE=-0.934E-04)
 bond charge predicted
       N       E                     dE             d eps       ncg     rms          rms(c)
DAV:   1    -0.614119975032E+03    0.51611E-04   -0.38497E-03 11872   0.126E-01    0.596E-02
DAV:   2    -0.614120624636E+03   -0.64960E-03   -0.17913E-02 17080   0.135E-01    0.272E-01
DAV:   3    -0.614120343530E+03    0.28111E-03   -0.58967E-03 16360   0.122E-01    0.109E-01
DAV:   4    -0.614120109309E+03    0.23422E-03   -0.15469E-03 14400   0.307E-02    0.856E-02
DAV:   5    -0.614119825617E+03    0.28369E-03   -0.15254E-04 10216   0.167E-02    0.621E-02
DAV:   6    -0.614119952044E+03   -0.12643E-03   -0.40107E-04  8480   0.145E-02    0.740E-02
DAV:   7    -0.614120025904E+03   -0.73861E-04   -0.50335E-05  7112   0.750E-03    0.496E-02
DAV:   8    -0.614119955234E+03    0.70670E-04   -0.58296E-05  7072   0.636E-03    0.676E-02
DAV:   9    -0.614119985422E+03   -0.30188E-04   -0.36020E-04  6928   0.605E-03    0.527E-02
DAV:  10    -0.614119963355E+03    0.22067E-04   -0.56955E-06  6832   0.507E-03    0.524E-02
DAV:  11    -0.614119954059E+03    0.92963E-05   -0.12952E-06  6736   0.292E-03
  30 F= -.61411995E+03 E0= -.61411995E+03  d E =-.149309E-03
 curvature:  -0.30 expect dE=-0.620E-04 dE for cont linesearch -0.264E-06
 ZBRENT: interpolating
 opt :   0.1730  next Energy=  -614.119954 (dE=-0.150E-03)
 bond charge predicted
       N       E                     dE             d eps       ncg     rms          rms(c)
DAV:   1    -0.614119944398E+03    0.18957E-04   -0.16292E-04 11160   0.259E-02    0.484E-02
DAV:   2    -0.614120575402E+03   -0.63100E-03   -0.15859E-02 16840   0.117E-01    0.260E-01
DAV:   3    -0.614120213858E+03    0.36154E-03   -0.41928E-03 16056   0.109E-01    0.911E-02
DAV:   4    -0.614119819138E+03    0.39472E-03   -0.13795E-04 13064   0.219E-02    0.718E-02
DAV:   5    -0.614119887620E+03   -0.68481E-04   -0.51528E-04  8200   0.935E-03    0.763E-02
DAV:   6    -0.614119955211E+03   -0.67592E-04   -0.10257E-05  7200   0.832E-03    0.685E-02
DAV:   7    -0.614119957689E+03   -0.24782E-05   -0.19299E-04  7056   0.446E-03    0.506E-02
DAV:   8    -0.614119913463E+03    0.44226E-04   -0.21457E-05  6912   0.450E-03    0.300E-02
DAV:   9    -0.614119951363E+03   -0.37900E-04   -0.95220E-05  6872   0.371E-03    0.500E-02
DAV:  10    -0.614119945026E+03    0.63374E-05   -0.47932E-05  6776   0.237E-03
  31 F= -.61411995E+03 E0= -.61411995E+03  d E =-.140276E-03
 curvature:  -0.46 expect dE=-0.162E-03 dE for cont linesearch -0.110E-04
 ZBRENT: interpolating
 opt :   0.1869  next Energy=  -614.119954 (dE=-0.149E-03)
 bond charge predicted
       N       E                     dE             d eps       ncg     rms          rms(c)
DAV:   1    -0.614119964030E+03   -0.12667E-04   -0.31795E-04 11192   0.221E-02    0.513E-02
DAV:   2    -0.614120681534E+03   -0.71750E-03   -0.16660E-02 17056   0.124E-01    0.264E-01
DAV:   3    -0.614120325941E+03    0.35559E-03   -0.46937E-03 16328   0.115E-01    0.880E-02
DAV:   4    -0.614120127989E+03    0.19795E-03   -0.11099E-03 12744   0.256E-02    0.847E-02
DAV:   5    -0.614119976716E+03    0.15127E-03   -0.55561E-05  9256   0.137E-02    0.761E-02
DAV:   6    -0.614119997686E+03   -0.20970E-04   -0.41962E-05  8160   0.118E-02    0.708E-02
DAV:   7    -0.614119935514E+03    0.62171E-04   -0.61064E-05  7424   0.539E-03    0.486E-02
DAV:   8    -0.614119943718E+03   -0.82040E-05   -0.15188E-04  6928   0.536E-03    0.711E-02
DAV:   9    -0.614119972957E+03   -0.29239E-04   -0.90387E-05  6896   0.371E-03    0.491E-02
DAV:  10    -0.614119960951E+03    0.12006E-04   -0.16003E-04  6800   0.374E-03    0.708E-02
DAV:  11    -0.614119941647E+03    0.19304E-04   -0.48992E-05  6704   0.251E-03    0.454E-02
DAV:  12    -0.614119964869E+03   -0.23222E-04   -0.14995E-04  6664   0.257E-03    0.708E-02
DAV:  13    -0.614119944396E+03    0.20472E-04   -0.17907E-05  6608   0.211E-03    0.336E-02
DAV:  14    -0.614119956203E+03   -0.11807E-04   -0.12068E-04  6568   0.201E-03    0.707E-02
DAV:  15    -0.614119947772E+03    0.84307E-05   -0.16798E-05  6488   0.193E-03
  32 F= -.61411995E+03 E0= -.61411995E+03  d E =-.143022E-03
 curvature:  -0.00 expect dE=-0.403E-06 dE for cont linesearch -0.366E-10
 trial: gam= 0.32970 g(F)=  0.143E-03 g(S)=  0.385E-05 ort =-0.604E-05 (trialstep = 0.914E-01)
 search vector abs. value=  0.440E-03
 bond charge predicted
       N       E                     dE             d eps       ncg     rms          rms(c)
DAV:   1    -0.614119971678E+03   -0.15476E-04   -0.76645E-04 11656   0.541E-02    0.678E-02
DAV:   2    -0.614124477377E+03   -0.45057E-02   -0.23675E-02 17440   0.166E-01    0.311E-01
DAV:   3    -0.614119825159E+03    0.46522E-02   -0.53546E-03 16896   0.150E-01    0.125E-01
DAV:   4    -0.614120225265E+03   -0.40011E-03   -0.69038E-04 14800   0.305E-02    0.849E-02
DAV:   5    -0.614120225950E+03   -0.68525E-06   -0.29500E-04  9120   0.113E-02    0.603E-02
DAV:   6    -0.614120041525E+03    0.18443E-03   -0.11981E-04  7648   0.115E-02    0.616E-02
DAV:   7    -0.614119993060E+03    0.48465E-04   -0.77000E-06  7064   0.671E-03    0.566E-02
DAV:   8    -0.614119987791E+03    0.52686E-05   -0.21500E-06  6944   0.368E-03
  33 F= -.61411999E+03 E0= -.61411999E+03  d E =-.400190E-04
 ZBRENT: can't locate minimum, use default step
 trial-energy change:   -0.000040  1 .order   -0.000015   -0.000013   -0.000017
 step:   0.3657(harm=  0.3657)  dis= 0.00041  next Energy=  -614.120028 (dE=-0.805E-04)
 bond charge predicted
       N       E                     dE             d eps       ncg     rms          rms(c)
DAV:   1    -0.614120063691E+03   -0.70631E-04   -0.65195E-03 12296   0.162E-01    0.783E-02
DAV:   2    -0.614121238537E+03   -0.11748E-02   -0.19139E-02 16840   0.151E-01    0.278E-01
DAV:   3    -0.614121218463E+03    0.20074E-04   -0.10438E-02 16192   0.141E-01    0.160E-01
DAV:   4    -0.614120375309E+03    0.84315E-03   -0.31136E-03 15896   0.548E-02    0.922E-02
DAV:   5    -0.614119985603E+03    0.38971E-03   -0.84902E-05 13344   0.209E-02    0.738E-02
DAV:   6    -0.614120128799E+03   -0.14320E-03   -0.10971E-04  8608   0.105E-02    0.563E-02
DAV:   7    -0.614120177730E+03   -0.48931E-04   -0.58736E-04  8376   0.151E-02    0.744E-02
DAV:   8    -0.614120207274E+03   -0.29544E-04   -0.79765E-06  6992   0.776E-03    0.701E-02
DAV:   9    -0.614120212713E+03   -0.54392E-05   -0.76067E-05  6952   0.650E-03
  34 F= -.61412021E+03 E0= -.61412021E+03  d E =-.264941E-03
 curvature:  -0.87 expect dE=-0.146E-03 dE for cont linesearch -0.160E-04
 ZBRENT: increasing intervall
 opt :   0.9143  next Energy=  -614.120212 (dE=-0.264E-03)
 bond charge predicted
       N       E                     dE             d eps       ncg     rms          rms(c)
DAV:   1    -0.614120282720E+03   -0.75446E-04   -0.26048E-02 12256   0.324E-01    0.783E-02
DAV:   2    -0.614121339719E+03   -0.10570E-02   -0.20127E-02 15768   0.168E-01    0.285E-01
DAV:   3    -0.614120989689E+03    0.35003E-03   -0.85448E-03 15600   0.149E-01    0.122E-01
DAV:   4    -0.614120387252E+03    0.60244E-03   -0.24404E-03 16184   0.520E-02    0.948E-02
DAV:   5    -0.614120094698E+03    0.29255E-03   -0.27357E-04 13752   0.203E-02    0.557E-02
DAV:   6    -0.614120305258E+03   -0.21056E-03   -0.53448E-04  9896   0.171E-02    0.853E-02
DAV:   7    -0.614120367350E+03   -0.62092E-04   -0.37891E-05  7672   0.124E-02    0.406E-02
DAV:   8    -0.614120222073E+03    0.14528E-03   -0.24467E-04  8120   0.989E-03    0.798E-02
DAV:   9    -0.614120272646E+03   -0.50574E-04   -0.27704E-04  6952   0.802E-03    0.518E-02
DAV:  10    -0.614120269741E+03    0.29056E-05   -0.14391E-05  6848   0.689E-03
  35 F= -.61412027E+03 E0= -.61412027E+03  d E =-.321969E-03
 curvature:   0.06 expect dE= 0.840E-05 dE for cont linesearch  0.269E-06
 ZBRENT: increasing intervall
 opt :   2.0114  next Energy=  -614.120266 (dE=-0.318E-03)
 bond charge predicted
       N       E                     dE             d eps       ncg     rms          rms(c)
DAV:   1    -0.614120126331E+03    0.14632E-03   -0.10296E-01 12248   0.649E-01    0.127E-01
DAV:   2    -0.614123132375E+03   -0.30060E-02   -0.47701E-02 15472   0.279E-01    0.410E-01
DAV:   3    -0.614121215391E+03    0.19170E-02   -0.14119E-02 15456   0.238E-01    0.139E-01
DAV:   4    -0.614120119302E+03    0.10961E-02   -0.15096E-03 17744   0.699E-02    0.618E-02
DAV:   5    -0.614120370601E+03   -0.25130E-03   -0.62527E-04 15760   0.351E-02    0.108E-01
DAV:   6    -0.614120337914E+03    0.32687E-04   -0.77162E-04 11088   0.197E-02    0.475E-02
DAV:   7    -0.614120354508E+03   -0.16594E-04   -0.18897E-04  8584   0.152E-02    0.943E-02
DAV:   8    -0.614120365603E+03   -0.11094E-04   -0.59164E-04  9096   0.175E-02    0.476E-02
DAV:   9    -0.614120392147E+03   -0.26544E-04   -0.57694E-05  8144   0.137E-02    0.442E-02
DAV:  10    -0.614120375147E+03    0.17000E-04   -0.14236E-05  6920   0.840E-03    0.405E-02
DAV:  11    -0.614120323488E+03    0.51659E-04   -0.19274E-05  6808   0.616E-03    0.391E-02
DAV:  12    -0.614120390040E+03   -0.66552E-04   -0.17653E-04  6928   0.631E-03    0.905E-02
DAV:  13    -0.614120386305E+03    0.37344E-05   -0.23459E-04  6704   0.519E-03    0.396E-02
DAV:  14    -0.614120357894E+03    0.28411E-04   -0.20386E-05  6608   0.339E-03    0.851E-02
DAV:  15    -0.614120375041E+03   -0.17147E-04   -0.30640E-04  6584   0.340E-03    0.406E-02
DAV:  16    -0.614120372686E+03    0.23554E-05   -0.22101E-06  6576   0.286E-03
  36 F= -.61412037E+03 E0= -.61412037E+03  d E =-.424914E-03
 curvature:   0.82 expect dE= 0.331E-03 dE for cont linesearch  0.350E-04
 ZBRENT: bracketing found
 ZBRENT: interpolating
 opt :   1.1787  next Energy=  -614.120275 (dE=-0.328E-03)
 bond charge predicted
       N       E                     dE             d eps       ncg     rms          rms(c)
DAV:   1    -0.614120251368E+03    0.12367E-03   -0.60304E-02 12232   0.493E-01    0.107E-01
DAV:   2    -0.614126595666E+03   -0.63443E-02   -0.34646E-02 15608   0.246E-01    0.380E-01
DAV:   3    -0.614119871593E+03    0.67241E-02   -0.93168E-03 15456   0.214E-01    0.956E-02
DAV:   4    -0.614120697905E+03   -0.82631E-03   -0.63946E-04 17008   0.560E-02    0.701E-02
DAV:   5    -0.614120353513E+03    0.34439E-03   -0.37875E-04 14096   0.234E-02    0.833E-02
DAV:   6    -0.614120329642E+03    0.23871E-04   -0.77852E-04  8232   0.145E-02    0.598E-02
DAV:   7    -0.614120407399E+03   -0.77757E-04   -0.85212E-05  8840   0.158E-02    0.556E-02
DAV:   8    -0.614120313466E+03    0.93932E-04   -0.18510E-04  7552   0.146E-02    0.798E-02
DAV:   9    -0.614120302971E+03    0.10495E-04   -0.31280E-04  7152   0.957E-03    0.499E-02
DAV:  10    -0.614120300367E+03    0.26036E-05   -0.45783E-05  6872   0.631E-03
  37 F= -.61412030E+03 E0= -.61412030E+03  d E =-.352595E-03
 curvature:  -0.13 expect dE=-0.583E-04 dE for cont linesearch -0.621E-05
 ZBRENT: interpolating
 opt :   0.9762  next Energy=  -614.120271 (dE=-0.323E-03)
 bond charge predicted
       N       E                     dE             d eps       ncg     rms          rms(c)
DAV:   1    -0.614120278849E+03    0.24122E-04   -0.34743E-03 12096   0.120E-01    0.766E-02
DAV:   2    -0.614125200393E+03   -0.49215E-02   -0.26862E-02 17224   0.181E-01    0.337E-01
DAV:   3    -0.614119982805E+03    0.52176E-02   -0.65157E-03 16512   0.166E-01    0.126E-01
DAV:   4    -0.614120468850E+03   -0.48605E-03   -0.42049E-04 16096   0.351E-02    0.656E-02
DAV:   5    -0.614120311124E+03    0.15773E-03   -0.72300E-05 10288   0.147E-02    0.575E-02
DAV:   6    -0.614120275955E+03    0.35169E-04   -0.31396E-05  7696   0.830E-03    0.553E-02
DAV:   7    -0.614120273357E+03    0.25977E-05   -0.17617E-05  7136   0.674E-03
  38 F= -.61412027E+03 E0= -.61412027E+03  d E =-.325585E-03
 curvature:  -0.03 expect dE=-0.486E-05 dE for cont linesearch -0.487E-07
 trial: gam= 0.33156 g(F)=  0.164E-03 g(S)=  0.169E-05 ort = 0.271E-04 (trialstep = 0.268E+00)
 search vector abs. value=  0.232E-03
 bond charge predicted
       N       E                     dE             d eps       ncg     rms          rms(c)
DAV:   1    -0.614120262969E+03    0.12986E-04   -0.31601E-03 12128   0.124E-01    0.470E-02
DAV:   2    -0.614120912010E+03   -0.64904E-03   -0.13007E-02 17112   0.105E-01    0.242E-01
DAV:   3    -0.614120638520E+03    0.27349E-03   -0.42300E-03 16216   0.995E-02    0.996E-02
DAV:   4    -0.614120245889E+03    0.39263E-03   -0.23498E-04 14040   0.277E-02    0.268E-02
DAV:   5    -0.614120279714E+03   -0.33825E-04   -0.13524E-04  8968   0.131E-02    0.888E-02
DAV:   6    -0.614120297951E+03   -0.18237E-04   -0.22822E-04  7176   0.815E-03    0.415E-02
DAV:   7    -0.614120268997E+03    0.28953E-04   -0.61493E-05  6936   0.531E-03    0.854E-02
DAV:   8    -0.614120284018E+03   -0.15020E-04   -0.22482E-04  6872   0.473E-03    0.404E-02
DAV:   9    -0.614120284447E+03   -0.42906E-06   -0.43658E-06  6856   0.388E-03
  39 F= -.61412028E+03 E0= -.61412028E+03  d E =-.110896E-04
 ZBRENT: can't locate minimum, use default step
 trial-energy change:   -0.000011  1 .order   -0.000043   -0.000047   -0.000039
 step:   1.0735(harm=  1.5836)  dis= 0.00084  next Energy=  -614.120412 (dE=-0.139E-03)
 bond charge predicted
       N       E                     dE             d eps       ncg     rms          rms(c)
DAV:   1    -0.614120182544E+03    0.10147E-03   -0.28485E-02 12224   0.371E-01    0.108E-01
DAV:   2    -0.614123084864E+03   -0.29023E-02   -0.44430E-02 16496   0.246E-01    0.399E-01
DAV:   3    -0.614121191711E+03    0.18932E-02   -0.13425E-02 16072   0.217E-01    0.131E-01
DAV:   4    -0.614120287797E+03    0.90391E-03   -0.20076E-03 16232   0.596E-02    0.119E-01
DAV:   5    -0.614120054586E+03    0.23321E-03   -0.16855E-03 15184   0.305E-02    0.447E-02
DAV:   6    -0.614120162495E+03   -0.10791E-03   -0.19872E-04 10640   0.190E-02    0.488E-02
DAV:   7    -0.614120209968E+03   -0.47473E-04   -0.16419E-04  7560   0.138E-02    0.330E-02
DAV:   8    -0.614120160327E+03    0.49641E-04   -0.54205E-05  7032   0.988E-03    0.275E-02
DAV:   9    -0.614120067965E+03    0.92362E-04   -0.73515E-06  6944   0.866E-03    0.229E-02
DAV:  10    -0.614120136358E+03   -0.68393E-04   -0.11877E-05  6968   0.738E-03    0.188E-02
DAV:  11    -0.614120123393E+03    0.12965E-04   -0.51941E-06  6800   0.569E-03    0.125E-02
DAV:  12    -0.614120125852E+03   -0.24587E-05   -0.68980E-05  6656   0.437E-03
  40 F= -.61412013E+03 E0= -.61412013E+03  d E =0.147505E-03
 curvature:  -0.89 expect dE=-0.820E-03 dE for cont linesearch -0.317E-03
 ZBRENT: interpolating
 opt :   0.5391  next Energy=  -614.120304 (dE=-0.308E-04)
 bond charge predicted
       N       E                     dE             d eps       ncg     rms          rms(c)
DAV:   1    -0.614120233617E+03   -0.11022E-03   -0.12408E-02 12216   0.246E-01    0.113E-01
DAV:   2    -0.614128433466E+03   -0.81998E-02   -0.42386E-02 16904   0.282E-01    0.420E-01
DAV:   3    -0.614119937652E+03    0.84958E-02   -0.12284E-02 16176   0.246E-01    0.131E-01
DAV:   4    -0.614120680419E+03   -0.74277E-03   -0.12877E-03 16664   0.557E-02    0.642E-02
DAV:   5    -0.614120422207E+03    0.25821E-03   -0.74846E-04 13968   0.275E-02    0.665E-02
DAV:   6    -0.614120335128E+03    0.87079E-04   -0.40825E-04 11208   0.192E-02    0.442E-02
DAV:   7    -0.614120274110E+03    0.61018E-04   -0.32617E-04  7720   0.108E-02    0.969E-02
DAV:   8    -0.614120288057E+03   -0.13947E-04   -0.35055E-04  7040   0.879E-03    0.435E-02
DAV:   9    -0.614120301516E+03   -0.13459E-04   -0.75553E-06  6880   0.620E-03    0.409E-02
DAV:  10    -0.614120289777E+03    0.11739E-04   -0.13548E-05  6864   0.490E-03    0.431E-02
DAV:  11    -0.614120313042E+03   -0.23265E-04   -0.47443E-05  6824   0.482E-03    0.330E-02
DAV:  12    -0.614120299483E+03    0.13558E-04   -0.15579E-04  6784   0.504E-03    0.879E-02
DAV:  13    -0.614120304321E+03   -0.48380E-05   -0.17372E-04  6728   0.390E-03    0.425E-02
DAV:  14    -0.614120303143E+03    0.11779E-05   -0.43391E-05  6632   0.313E-03
  41 F= -.61412030E+03 E0= -.61412030E+03  d E =-.297864E-04
 curvature:  -0.06 expect dE=-0.264E-04 dE for cont linesearch -0.578E-05
 ZBRENT: interpolating
 opt :   0.3991  next Energy=  -614.120294 (dE=-0.206E-04)
 bond charge predicted
       N       E                     dE             d eps       ncg     rms          rms(c)
DAV:   1    -0.614120307041E+03   -0.27199E-05   -0.86843E-04 12000   0.647E-02    0.927E-02
DAV:   2    -0.614126392174E+03   -0.60851E-02   -0.33276E-02 17472   0.215E-01    0.368E-01
DAV:   3    -0.614119930284E+03    0.64619E-02   -0.81993E-03 16944   0.194E-01    0.127E-01
DAV:   4    -0.614120572921E+03   -0.64264E-03   -0.60779E-04 15832   0.425E-02    0.636E-02
DAV:   5    -0.614120414104E+03    0.15882E-03   -0.31167E-04 11968   0.201E-02    0.595E-02
DAV:   6    -0.614120337506E+03    0.76598E-04   -0.84464E-05  8464   0.122E-02    0.524E-02
DAV:   7    -0.614120323830E+03    0.13676E-04   -0.21387E-05  7192   0.782E-03    0.452E-02
DAV:   8    -0.614120303537E+03    0.20293E-04   -0.39102E-05  6952   0.527E-03    0.493E-02
DAV:   9    -0.614120312577E+03   -0.90395E-05   -0.15803E-05  6928   0.409E-03
  42 F= -.61412031E+03 E0= -.61412031E+03  d E =-.392198E-04
 curvature:  -0.09 expect dE=-0.621E-05 dE for cont linesearch -0.438E-05
 ZBRENT: bisectioning
 opt :   0.4691  next Energy=  -614.120319 (dE=-0.459E-04)
 bond charge predicted
       N       E                     dE             d eps       ncg     rms          rms(c)
DAV:   1    -0.614120305872E+03   -0.23349E-05   -0.23086E-04 12040   0.325E-02    0.474E-02
DAV:   2    -0.614121268194E+03   -0.96232E-03   -0.15757E-02 17264   0.108E-01    0.262E-01
DAV:   3    -0.614120810918E+03    0.45728E-03   -0.44756E-03 16384   0.103E-01    0.112E-01
DAV:   4    -0.614120332877E+03    0.47804E-03   -0.18019E-04 13032   0.268E-02    0.965E-02
DAV:   5    -0.614120354016E+03   -0.21140E-04   -0.14058E-04  8312   0.938E-03    0.392E-02
DAV:   6    -0.614120341784E+03    0.12232E-04   -0.10621E-04  7160   0.716E-03    0.925E-02
DAV:   7    -0.614120342288E+03   -0.50350E-06   -0.38330E-04  7008   0.579E-03    0.486E-02
DAV:   8    -0.614120298650E+03    0.43638E-04   -0.14962E-05  6960   0.525E-03    0.437E-02
DAV:   9    -0.614120301754E+03   -0.31037E-05   -0.16549E-05  6776   0.345E-03
  43 F= -.61412030E+03 E0= -.61412030E+03  d E =-.283968E-04
 curvature:  -0.14 expect dE=-0.854E-05 dE for cont linesearch -0.597E-05
 ZBRENT: bisectioning
 opt :   0.5041  next Energy=  -614.120305 (dE=-0.319E-04)
 bond charge predicted
       N       E                     dE             d eps       ncg     rms          rms(c)
DAV:   1    -0.614120316918E+03   -0.18268E-04   -0.61081E-05 11136   0.163E-02    0.453E-02
DAV:   2    -0.614121140505E+03   -0.82359E-03   -0.14124E-02 16872   0.100E-01    0.257E-01
DAV:   3    -0.614120842551E+03    0.29795E-03   -0.52496E-03 15880   0.967E-02    0.117E-01
DAV:   4    -0.614120502040E+03    0.34051E-03   -0.13902E-03 12432   0.268E-02    0.104E-01
DAV:   5    -0.614120268803E+03    0.23324E-03   -0.22143E-05  9232   0.121E-02    0.736E-02
DAV:   6    -0.614120336390E+03   -0.67587E-04   -0.87240E-05  7512   0.730E-03    0.353E-02
DAV:   7    -0.614120316621E+03    0.19769E-04   -0.85036E-05  6960   0.481E-03    0.933E-02
DAV:   8    -0.614120310448E+03    0.61737E-05   -0.39792E-04  6920   0.532E-03    0.462E-02
DAV:   9    -0.614120308571E+03    0.18763E-05   -0.40738E-06  6856   0.485E-03
  44 F= -.61412031E+03 E0= -.61412031E+03  d E =-.352144E-04
 curvature:  -0.08 expect dE=-0.905E-05 dE for cont linesearch -0.418E-05
 ZBRENT: bisectioning
 opt :   0.5216  next Energy=  -614.120311 (dE=-0.372E-04)
 bond charge predicted
       N       E                     dE             d eps       ncg     rms          rms(c)
DAV:   1    -0.614120312440E+03   -0.19926E-05   -0.30523E-05  8032   0.858E-03    0.353E-02
DAV:   2    -0.614120627126E+03   -0.31469E-03   -0.10778E-02 15464   0.884E-02    0.235E-01
DAV:   3    -0.614120463844E+03    0.16328E-03   -0.36211E-03 14504   0.828E-02    0.106E-01
DAV:   4    -0.614120238279E+03    0.22556E-03   -0.41021E-04 10936   0.158E-02    0.467E-02
DAV:   5    -0.614120235391E+03    0.28877E-05   -0.23842E-04  7784   0.104E-02    0.977E-02
DAV:   6    -0.614120251303E+03   -0.15911E-04   -0.16568E-04  6968   0.638E-03    0.315E-02
DAV:   7    -0.614120252560E+03   -0.12575E-05   -0.92135E-05  6896   0.447E-03
  45 F= -.61412025E+03 E0= -.61412025E+03  d E =0.207969E-04
 curvature:  -0.04 expect dE=-0.217E-04 dE for cont linesearch -0.535E-05
 ZBRENT: interpolating
 opt :   0.5107  next Energy=  -614.120309 (dE=-0.356E-04)
 bond charge predicted
       N       E                     dE             d eps       ncg     rms          rms(c)
DAV:   1    -0.614120282154E+03   -0.30852E-04   -0.17572E-04  6872   0.662E-03    0.315E-02
DAV:   2    -0.614120542903E+03   -0.26075E-03   -0.92677E-03 15008   0.773E-02    0.228E-01
DAV:   3    -0.614120450436E+03    0.92467E-04   -0.36022E-03 14080   0.741E-02    0.104E-01
DAV:   4    -0.614120206025E+03    0.24441E-03   -0.10715E-04 10464   0.161E-02    0.957E-02
DAV:   5    -0.614120211851E+03   -0.58254E-05   -0.51773E-05  7312   0.486E-03
  46 F= -.61412021E+03 E0= -.61412021E+03  d E =0.615064E-04
 curvature:  -0.00 expect dE=-0.154E-06 dE for cont linesearch -0.933E-07
 ZBRENT: bisectioning
 opt :   0.5161  next Energy=  -614.120212 (dE= 0.610E-04)
 bond charge predicted
       N       E                     dE             d eps       ncg     rms          rms(c)
DAV:   1    -0.614120277768E+03   -0.71743E-04   -0.17999E-04  6968   0.680E-03    0.966E-02
DAV:   2    -0.614126891135E+03   -0.66134E-02   -0.36204E-02 17960   0.232E-01    0.385E-01
DAV:   3    -0.614119947670E+03    0.69435E-02   -0.92301E-03 17160   0.205E-01    0.129E-01
DAV:   4    -0.614120600705E+03   -0.65303E-03   -0.46643E-04 15720   0.430E-02    0.612E-02
DAV:   5    -0.614120316185E+03    0.28452E-03   -0.12965E-04 12128   0.186E-02    0.480E-02
DAV:   6    -0.614120268814E+03    0.47371E-04   -0.68657E-05  8224   0.968E-03    0.441E-02
DAV:   7    -0.614120256989E+03    0.11825E-04   -0.19231E-05  7240   0.715E-03    0.381E-02
DAV:   8    -0.614120246603E+03    0.10386E-04   -0.41143E-06  7000   0.413E-03    0.366E-02
DAV:   9    -0.614120249295E+03   -0.26919E-05   -0.54162E-06  6944   0.419E-03
  47 F= -.61412025E+03 E0= -.61412025E+03  d E =0.240622E-04
 curvature:  -0.01 expect dE=-0.577E-06 dE for cont linesearch -0.392E-06
 trial: gam=-0.18681 g(F)=  0.454E-04 g(S)=  0.242E-06 ort = 0.849E-04 (trialstep = 0.318E+00)
 search vector abs. value=  0.221E-04
 reached required accuracy - stopping structural energy minimisation
 writing wavefunctions
