  20  20   0   0
  0.1253315E+02  0.8884724E-09  0.8884724E-09  0.8884724E-09  0.5000000E-15
  1.000000000000000E-004
  CAR 
 unknown system                          
     13.61631615    -55.19093041  301      6.48247742      1.00000000
    -55.191  0.0000E+00  0.0000E+00
    -54.962  0.0000E+00  0.0000E+00
    -54.732  0.0000E+00  0.0000E+00
    -54.503  0.0000E+00  0.0000E+00
    -54.274  0.0000E+00  0.0000E+00
    -54.044  0.0000E+00  0.0000E+00
    -53.815  0.0000E+00  0.0000E+00
    -53.585  0.0000E+00  0.0000E+00
    -53.356  0.0000E+00  0.0000E+00
    -53.127  0.0000E+00  0.0000E+00
    -52.897  0.0000E+00  0.0000E+00
    -52.668  0.0000E+00  0.0000E+00
    -52.439  0.0000E+00  0.0000E+00
    -52.209  0.0000E+00  0.0000E+00
    -51.980  0.0000E+00  0.6000E+01
    -51.751  0.0000E+00  0.6000E+01
    -51.521  0.0000E+00  0.6000E+01
    -51.292  0.0000E+00  0.6000E+01
    -51.062  0.0000E+00  0.6000E+01
    -50.833  0.0000E+00  0.6000E+01
    -50.604  0.0000E+00  0.6000E+01
    -50.374  0.0000E+00  0.8000E+01
    -50.145  0.0000E+00  0.8000E+01
    -49.916  0.0000E+00  0.8000E+01
    -49.686  0.0000E+00  0.8000E+01
    -49.457  0.0000E+00  0.8000E+01
    -49.228  0.0000E+00  0.8000E+01
    -48.998  0.0000E+00  0.8000E+01
    -48.769  0.0000E+00  0.8000E+01
    -48.540  0.0000E+00  0.8000E+01
    -48.310  0.0000E+00  0.8000E+01
    -48.081  0.0000E+00  0.8000E+01
    -47.851  0.0000E+00  0.8000E+01
    -47.622  0.0000E+00  0.8000E+01
    -47.393  0.0000E+00  0.8000E+01
    -47.163  0.0000E+00  0.8000E+01
    -46.934  0.0000E+00  0.8000E+01
    -46.705  0.0000E+00  0.8000E+01
    -46.475  0.0000E+00  0.8000E+01
    -46.246  0.0000E+00  0.8000E+01
    -46.017  0.0000E+00  0.8000E+01
    -45.787  0.0000E+00  0.8000E+01
    -45.558  0.0000E+00  0.8000E+01
    -45.329  0.0000E+00  0.8000E+01
    -45.099  0.0000E+00  0.8000E+01
    -44.870  0.0000E+00  0.8000E+01
    -44.640  0.0000E+00  0.8000E+01
    -44.411  0.0000E+00  0.8000E+01
    -44.182  0.0000E+00  0.8000E+01
    -43.952  0.0000E+00  0.8000E+01
    -43.723  0.0000E+00  0.8000E+01
    -43.494  0.0000E+00  0.8000E+01
    -43.264  0.0000E+00  0.8000E+01
    -43.035  0.0000E+00  0.8000E+01
    -42.806  0.0000E+00  0.8000E+01
    -42.576  0.0000E+00  0.8000E+01
    -42.347  0.0000E+00  0.8000E+01
    -42.118  0.0000E+00  0.8000E+01
    -41.888  0.0000E+00  0.8000E+01
    -41.659  0.0000E+00  0.8000E+01
    -41.429  0.0000E+00  0.8000E+01
    -41.200  0.0000E+00  0.8000E+01
    -40.971  0.0000E+00  0.8000E+01
    -40.741  0.0000E+00  0.8000E+01
    -40.512  0.0000E+00  0.8000E+01
    -40.283  0.0000E+00  0.8000E+01
    -40.053  0.0000E+00  0.8000E+01
    -39.824  0.0000E+00  0.8000E+01
    -39.595  0.0000E+00  0.8000E+01
    -39.365  0.0000E+00  0.8000E+01
    -39.136  0.0000E+00  0.8000E+01
    -38.907  0.0000E+00  0.8000E+01
    -38.677  0.0000E+00  0.8000E+01
    -38.448  0.0000E+00  0.8000E+01
    -38.218  0.0000E+00  0.8000E+01
    -37.989  0.0000E+00  0.8000E+01
    -37.760  0.0000E+00  0.8000E+01
    -37.530  0.0000E+00  0.8000E+01
    -37.301  0.0000E+00  0.8000E+01
    -37.072  0.0000E+00  0.8000E+01
    -36.842  0.0000E+00  0.8000E+01
    -36.613  0.0000E+00  0.8000E+01
    -36.384  0.0000E+00  0.8000E+01
    -36.154  0.0000E+00  0.8000E+01
    -35.925  0.0000E+00  0.8000E+01
    -35.696  0.0000E+00  0.8000E+01
    -35.466  0.0000E+00  0.8000E+01
    -35.237  0.0000E+00  0.8000E+01
    -35.007  0.0000E+00  0.8000E+01
    -34.778  0.0000E+00  0.8000E+01
    -34.549  0.0000E+00  0.8000E+01
    -34.319  0.0000E+00  0.8000E+01
    -34.090  0.0000E+00  0.8000E+01
    -33.861  0.0000E+00  0.8000E+01
    -33.631  0.0000E+00  0.8000E+01
    -33.402  0.0000E+00  0.8000E+01
    -33.173  0.0000E+00  0.8000E+01
    -32.943  0.0000E+00  0.8000E+01
    -32.714  0.0000E+00  0.8000E+01
    -32.485  0.0000E+00  0.8000E+01
    -32.255  0.0000E+00  0.8000E+01
    -32.026  0.0000E+00  0.8000E+01
    -31.796  0.0000E+00  0.8000E+01
    -31.567  0.0000E+00  0.8000E+01
    -31.338  0.0000E+00  0.8000E+01
    -31.108  0.0000E+00  0.8000E+01
    -30.879  0.0000E+00  0.8000E+01
    -30.650  0.0000E+00  0.8000E+01
    -30.420  0.0000E+00  0.8000E+01
    -30.191  0.0000E+00  0.8000E+01
    -29.962  0.0000E+00  0.8000E+01
    -29.732  0.0000E+00  0.8000E+01
    -29.503  0.0000E+00  0.8000E+01
    -29.274  0.0000E+00  0.8000E+01
    -29.044  0.0000E+00  0.8000E+01
    -28.815  0.0000E+00  0.1600E+02
    -28.585  0.0000E+00  0.1600E+02
    -28.356  0.1408E+03  0.1811E+02
    -28.127  0.0000E+00  0.3400E+02
    -27.897  0.0000E+00  0.3400E+02
    -27.668  0.0000E+00  0.3400E+02
    -27.439  0.0000E+00  0.3400E+02
    -27.209  0.0000E+00  0.3400E+02
    -26.980  0.0000E+00  0.3400E+02
    -26.751  0.0000E+00  0.3400E+02
    -26.521  0.0000E+00  0.4000E+02
    -26.292  0.0000E+00  0.4000E+02
    -26.063  0.0000E+00  0.4000E+02
    -25.833  0.0000E+00  0.4000E+02
    -25.604  0.0000E+00  0.4000E+02
    -25.374  0.0000E+00  0.4000E+02
    -25.145  0.0000E+00  0.4000E+02
    -24.916  0.0000E+00  0.4000E+02
    -24.686  0.0000E+00  0.4000E+02
    -24.457  0.0000E+00  0.4000E+02
    -24.228  0.0000E+00  0.4000E+02
    -23.998  0.0000E+00  0.4000E+02
    -23.769  0.0000E+00  0.4000E+02
    -23.540  0.0000E+00  0.4000E+02
    -23.310  0.0000E+00  0.4000E+02
    -23.081  0.0000E+00  0.4000E+02
    -22.852  0.0000E+00  0.4000E+02
    -22.622  0.0000E+00  0.4000E+02
    -22.393  0.0000E+00  0.4000E+02
    -22.163  0.0000E+00  0.4000E+02
    -21.934  0.0000E+00  0.4000E+02
    -21.705  0.0000E+00  0.4000E+02
    -21.475  0.0000E+00  0.4000E+02
    -21.246  0.0000E+00  0.4000E+02
    -21.017  0.0000E+00  0.4000E+02
    -20.787  0.0000E+00  0.4000E+02
    -20.558  0.0000E+00  0.4000E+02
    -20.329  0.0000E+00  0.4000E+02
    -20.099  0.0000E+00  0.4000E+02
    -19.870  0.0000E+00  0.4000E+02
    -19.641  0.0000E+00  0.4000E+02
    -19.411  0.0000E+00  0.4000E+02
    -19.182  0.0000E+00  0.4000E+02
    -18.952  0.0000E+00  0.4000E+02
    -18.723  0.0000E+00  0.4000E+02
    -18.494  0.0000E+00  0.4000E+02
    -18.264  0.0000E+00  0.4000E+02
    -18.035  0.0000E+00  0.4000E+02
    -17.806  0.0000E+00  0.4000E+02
    -17.576  0.0000E+00  0.4000E+02
    -17.347  0.0000E+00  0.4000E+02
    -17.118  0.0000E+00  0.4000E+02
    -16.888  0.0000E+00  0.4000E+02
    -16.659  0.0000E+00  0.4000E+02
    -16.430  0.0000E+00  0.4000E+02
    -16.200  0.0000E+00  0.4000E+02
    -15.971  0.0000E+00  0.4000E+02
    -15.741  0.0000E+00  0.4000E+02
    -15.512  0.0000E+00  0.4000E+02
    -15.283  0.0000E+00  0.4000E+02
    -15.053  0.0000E+00  0.4000E+02
    -14.824  0.0000E+00  0.4000E+02
    -14.595  0.0000E+00  0.4000E+02
    -14.365  0.0000E+00  0.4000E+02
    -14.136  0.0000E+00  0.4000E+02
    -13.907  0.0000E+00  0.4000E+02
    -13.677  0.0000E+00  0.4000E+02
    -13.448  0.1622E+01  0.4003E+02
    -13.219  0.1460E+02  0.4234E+02
    -12.989  0.1310E+02  0.4496E+02
    -12.760  0.9038E+01  0.4657E+02
    -12.530  0.2015E+02  0.4868E+02
    -12.301  0.3631E+02  0.5330E+02
    -12.072  0.2953E+02  0.6300E+02
    -11.842  0.0000E+00  0.6400E+02
    -11.613  0.0000E+00  0.6400E+02
    -11.384  0.0000E+00  0.6400E+02
    -11.154  0.0000E+00  0.6400E+02
    -10.925  0.3342E+02  0.6720E+02
    -10.696  0.3091E+02  0.7854E+02
    -10.466  0.2263E+02  0.8715E+02
    -10.237  0.0000E+00  0.8800E+02
    -10.008  0.0000E+00  0.8800E+02
     -9.778  0.0000E+00  0.8800E+02
     -9.549  0.0000E+00  0.8800E+02
     -9.319  0.0000E+00  0.8800E+02
     -9.090  0.0000E+00  0.8800E+02
     -8.861  0.0000E+00  0.8800E+02
     -8.631  0.0000E+00  0.8800E+02
     -8.402  0.0000E+00  0.8800E+02
     -8.173  0.0000E+00  0.8800E+02
     -7.943  0.0000E+00  0.8800E+02
     -7.714  0.0000E+00  0.8800E+02
     -7.485  0.0000E+00  0.8800E+02
     -7.255  0.0000E+00  0.8800E+02
     -7.026  0.0000E+00  0.8800E+02
     -6.797  0.0000E+00  0.8800E+02
     -6.567  0.0000E+00  0.8800E+02
     -6.338  0.0000E+00  0.8800E+02
     -6.108  0.0000E+00  0.8800E+02
     -5.879  0.0000E+00  0.8800E+02
     -5.650  0.0000E+00  0.8800E+02
     -5.420  0.0000E+00  0.8800E+02
     -5.191  0.0000E+00  0.8800E+02
     -4.962  0.0000E+00  0.8800E+02
     -4.732  0.0000E+00  0.8800E+02
     -4.503  0.0000E+00  0.8800E+02
     -4.274  0.0000E+00  0.8800E+02
     -4.044  0.0000E+00  0.8800E+02
     -3.815  0.0000E+00  0.8800E+02
     -3.585  0.0000E+00  0.8800E+02
     -3.356  0.0000E+00  0.8800E+02
     -3.127  0.0000E+00  0.8800E+02
     -2.897  0.0000E+00  0.8800E+02
     -2.668  0.0000E+00  0.8800E+02
     -2.439  0.0000E+00  0.8800E+02
     -2.209  0.0000E+00  0.8800E+02
     -1.980  0.0000E+00  0.8800E+02
     -1.751  0.0000E+00  0.8800E+02
     -1.521  0.0000E+00  0.8800E+02
     -1.292  0.0000E+00  0.8800E+02
     -1.063  0.0000E+00  0.8800E+02
     -0.833  0.0000E+00  0.8800E+02
     -0.604  0.8472E+01  0.8897E+02
     -0.374  0.1191E+02  0.9138E+02
     -0.145  0.1644E+02  0.9398E+02
      0.084  0.1526E+02  0.9730E+02
      0.314  0.1913E+02  0.1008E+03
      0.543  0.1314E+02  0.1046E+03
      0.772  0.1340E+02  0.1078E+03
      1.002  0.2209E+02  0.1122E+03
      1.231  0.2954E+02  0.1180E+03
      1.460  0.1516E+02  0.1245E+03
      1.690  0.9021E+01  0.1271E+03
      1.919  0.9614E+01  0.1293E+03
      2.148  0.1127E+02  0.1317E+03
      2.378  0.1409E+02  0.1347E+03
      2.607  0.1915E+02  0.1376E+03
      2.837  0.1891E+02  0.1424E+03
      3.066  0.2254E+02  0.1477E+03
      3.295  0.1732E+02  0.1532E+03
      3.525  0.1368E+02  0.1559E+03
      3.754  0.9795E+01  0.1586E+03
      3.983  0.1064E+01  0.1600E+03
      4.213  0.0000E+00  0.1600E+03
      4.442  0.0000E+00  0.1600E+03
      4.671  0.0000E+00  0.1600E+03
      4.901  0.0000E+00  0.1600E+03
      5.130  0.0000E+00  0.1600E+03
      5.359  0.0000E+00  0.1600E+03
      5.589  0.0000E+00  0.1600E+03
      5.818  0.0000E+00  0.1600E+03
      6.048  0.1980E+00  0.1600E+03
      6.277  0.2094E+01  0.1602E+03
      6.506  0.4662E+01  0.1611E+03
      6.736  0.5313E+01  0.1623E+03
      6.965  0.6952E+01  0.1637E+03
      7.194  0.6782E+01  0.1654E+03
      7.424  0.9071E+01  0.1672E+03
      7.653  0.1038E+02  0.1695E+03
      7.882  0.1647E+02  0.1726E+03
      8.112  0.1206E+02  0.1772E+03
      8.341  0.1356E+02  0.1804E+03
      8.570  0.8713E+01  0.1829E+03
      8.800  0.2646E+01  0.1842E+03
      9.029  0.4186E+01  0.1853E+03
      9.259  0.4817E+01  0.1863E+03
      9.488  0.4287E+01  0.1875E+03
      9.717  0.5787E+01  0.1887E+03
      9.947  0.5264E+01  0.1900E+03
     10.176  0.3868E+01  0.1912E+03
     10.405  0.1093E+01  0.1920E+03
     10.635  0.0000E+00  0.1920E+03
     10.864  0.0000E+00  0.1920E+03
     11.093  0.0000E+00  0.1920E+03
     11.323  0.0000E+00  0.1920E+03
     11.552  0.0000E+00  0.1920E+03
     11.781  0.0000E+00  0.1920E+03
     12.011  0.0000E+00  0.1920E+03
     12.240  0.0000E+00  0.1920E+03
     12.470  0.0000E+00  0.1920E+03
     12.699  0.0000E+00  0.1920E+03
     12.928  0.0000E+00  0.1920E+03
     13.158  0.0000E+00  0.1920E+03
     13.387  0.0000E+00  0.1920E+03
     13.616  0.0000E+00  0.1920E+03
